<?xml version="1.0" encoding="ISO-8859-1"?>
<modeling>
 <generator>
  <i name="program" type="string">vasp </i>
  <i name="version" type="string">6.1.0  </i>
  <i name="subversion" type="string">28Jan20 (build Feb 01 2020 00:58:24) complex                          parallel </i>
  <i name="platform" type="string">LinuxIFC </i>
  <i name="date" type="string">2020 02 21 </i>
  <i name="time" type="string">17:27:15 </i>
 </generator>
 <incar>
  <i type="string" name="SYSTEM"> Cs2SnI2Cl2</i>
  <i type="string" name="PREC"> Normal</i>
  <i type="string" name="ALGO"> Exact</i>
  <i type="int" name="NSIM">     2</i>
  <i type="int" name="IBRION">     1</i>
  <i name="EDIFF">      0.00001000</i>
  <i name="EDIFFG">     -0.01000000</i>
  <i type="int" name="NSW">     0</i>
  <i type="int" name="ISIF">     2</i>
  <i name="ENCUT">    400.00000000</i>
  <i type="int" name="NBANDS">    24</i>
  <i type="int" name="NEDOS">  2000</i>
  <i type="logical" name="LREAL"> F  </i>
  <i type="logical" name="LPLANE"> T  </i>
  <i type="int" name="ISMEAR">     0</i>
  <i name="SIGMA">      0.05000000</i>
  <i name="KSPACING">      0.05000000</i>
  <i type="logical" name="LWAVE"> F  </i>
  <i type="logical" name="LCHARG"> F  </i>
  <i type="logical" name="LOPTICS"> T  </i>
  <i type="int" name="NPAR">     4</i>
  <i type="string" name="ALGO"> Exact</i>
  <i name="CSHIFT">      0.10000000</i>
  <i type="string" name="GGA"> PS</i>
  <i name="EDIFF">      0.00001000</i>
  <i name="CSHIFT">      0.10000000</i>
 </incar>
 <structure name="primitive_cell" >
  <crystal>
   <varray name="basis" >
    <v>       0.00000000       2.84191452       2.84191452 </v>
    <v>       2.84191452       0.00000000       2.84191452 </v>
    <v>       2.84191452       2.84191452       0.00000000 </v>
   </varray>
   <i name="volume">     45.90532112 </i>
   <varray name="rec_basis" >
    <v>      -0.17593773       0.17593773       0.17593773 </v>
    <v>       0.17593773      -0.17593773       0.17593773 </v>
    <v>       0.17593773       0.17593773      -0.17593773 </v>
   </varray>
  </crystal>
  <varray name="positions" >
   <v>       0.25000000       0.25000000       0.25000000 </v>
   <v>       0.00000000       0.00000000       0.00000000 </v>
  </varray>
 </structure>
 <varray name="primitive_index" >
  <v type="int" >        1 </v>
  <v type="int" >        2 </v>
 </varray>
 <kpoints>
  <generation param="Gamma">
   <v type="int" name="divisions">      39       39       39 </v>
   <v name="usershift">      0.00000000       0.00000000       0.00000000 </v>
   <v name="genvec1">      0.02564103       0.00000000      -0.00000000 </v>
   <v name="genvec2">      0.00000000       0.02564103       0.00000000 </v>
   <v name="genvec3">     -0.00000000      -0.00000000       0.02564103 </v>
   <v name="shift">      0.00000000       0.00000000       0.00000000 </v>
  </generation>
  <varray name="kpointlist" >
   <v>       0.00000000       0.00000000       0.00000000 </v>
   <v>       0.02564103      -0.00000000       0.00000000 </v>
   <v>       0.05128205      -0.00000000      -0.00000000 </v>
   <v>       0.07692308      -0.00000000      -0.00000000 </v>
   <v>       0.10256410       0.00000000       0.00000000 </v>
   <v>       0.12820513       0.00000000       0.00000000 </v>
   <v>       0.15384615      -0.00000000      -0.00000000 </v>
   <v>       0.17948718      -0.00000000      -0.00000000 </v>
   <v>       0.20512821       0.00000000       0.00000000 </v>
   <v>       0.23076923      -0.00000000       0.00000000 </v>
   <v>       0.25641026       0.00000000      -0.00000000 </v>
   <v>       0.28205128      -0.00000000      -0.00000000 </v>
   <v>       0.30769231      -0.00000000       0.00000000 </v>
   <v>       0.33333333      -0.00000000       0.00000000 </v>
   <v>       0.35897436      -0.00000000      -0.00000000 </v>
   <v>       0.38461538      -0.00000000      -0.00000000 </v>
   <v>       0.41025641       0.00000000       0.00000000 </v>
   <v>       0.43589744       0.00000000       0.00000000 </v>
   <v>       0.46153846      -0.00000000      -0.00000000 </v>
   <v>       0.48717949      -0.00000000      -0.00000000 </v>
   <v>       0.02564103       0.02564103      -0.00000000 </v>
   <v>       0.05128205       0.02564103       0.00000000 </v>
   <v>       0.07692308       0.02564103      -0.00000000 </v>
   <v>       0.10256410       0.02564103      -0.00000000 </v>
   <v>       0.12820513       0.02564103       0.00000000 </v>
   <v>       0.15384615       0.02564103       0.00000000 </v>
   <v>       0.17948718       0.02564103      -0.00000000 </v>
   <v>       0.20512821       0.02564103      -0.00000000 </v>
   <v>       0.23076923       0.02564103       0.00000000 </v>
   <v>       0.25641026       0.02564103       0.00000000 </v>
   <v>       0.28205128       0.02564103      -0.00000000 </v>
   <v>       0.30769231       0.02564103      -0.00000000 </v>
   <v>       0.33333333       0.02564103       0.00000000 </v>
   <v>       0.35897436       0.02564103       0.00000000 </v>
   <v>       0.38461538       0.02564103      -0.00000000 </v>
   <v>       0.41025641       0.02564103      -0.00000000 </v>
   <v>       0.43589744       0.02564103       0.00000000 </v>
   <v>       0.46153846       0.02564103       0.00000000 </v>
   <v>       0.48717949       0.02564103      -0.00000000 </v>
   <v>      -0.48717949       0.02564103      -0.00000000 </v>
   <v>      -0.46153846       0.02564103       0.00000000 </v>
   <v>      -0.43589744       0.02564103       0.00000000 </v>
   <v>      -0.41025641       0.02564103      -0.00000000 </v>
   <v>      -0.38461538       0.02564103      -0.00000000 </v>
   <v>      -0.35897436       0.02564103       0.00000000 </v>
   <v>      -0.33333333       0.02564103       0.00000000 </v>
   <v>      -0.30769231       0.02564103      -0.00000000 </v>
   <v>      -0.28205128       0.02564103      -0.00000000 </v>
   <v>      -0.25641026       0.02564103       0.00000000 </v>
   <v>      -0.23076923       0.02564103       0.00000000 </v>
   <v>      -0.20512821       0.02564103      -0.00000000 </v>
   <v>      -0.17948718       0.02564103      -0.00000000 </v>
   <v>      -0.15384615       0.02564103       0.00000000 </v>
   <v>      -0.12820513       0.02564103       0.00000000 </v>
   <v>      -0.10256410       0.02564103      -0.00000000 </v>
   <v>      -0.07692308       0.02564103      -0.00000000 </v>
   <v>      -0.05128205       0.02564103       0.00000000 </v>
   <v>      -0.02564103       0.02564103       0.00000000 </v>
   <v>       0.05128205       0.05128205      -0.00000000 </v>
   <v>       0.07692308       0.05128205       0.00000000 </v>
   <v>       0.10256410       0.05128205      -0.00000000 </v>
   <v>       0.12820513       0.05128205      -0.00000000 </v>
   <v>       0.15384615       0.05128205       0.00000000 </v>
   <v>       0.17948718       0.05128205       0.00000000 </v>
   <v>       0.20512821       0.05128205      -0.00000000 </v>
   <v>       0.23076923       0.05128205      -0.00000000 </v>
   <v>       0.25641026       0.05128205       0.00000000 </v>
   <v>       0.28205128       0.05128205       0.00000000 </v>
   <v>       0.30769231       0.05128205      -0.00000000 </v>
   <v>       0.33333333       0.05128205      -0.00000000 </v>
   <v>       0.35897436       0.05128205       0.00000000 </v>
   <v>       0.38461538       0.05128205       0.00000000 </v>
   <v>       0.41025641       0.05128205      -0.00000000 </v>
   <v>       0.43589744       0.05128205      -0.00000000 </v>
   <v>       0.46153846       0.05128205       0.00000000 </v>
   <v>       0.48717949       0.05128205       0.00000000 </v>
   <v>      -0.48717949       0.05128205      -0.00000000 </v>
   <v>      -0.46153846       0.05128205      -0.00000000 </v>
   <v>      -0.43589744       0.05128205       0.00000000 </v>
   <v>      -0.41025641       0.05128205       0.00000000 </v>
   <v>      -0.38461538       0.05128205      -0.00000000 </v>
   <v>      -0.35897436       0.05128205      -0.00000000 </v>
   <v>      -0.33333333       0.05128205       0.00000000 </v>
   <v>      -0.30769231       0.05128205       0.00000000 </v>
   <v>      -0.28205128       0.05128205      -0.00000000 </v>
   <v>      -0.25641026       0.05128205      -0.00000000 </v>
   <v>      -0.23076923       0.05128205       0.00000000 </v>
   <v>      -0.20512821       0.05128205       0.00000000 </v>
   <v>      -0.17948718       0.05128205      -0.00000000 </v>
   <v>      -0.15384615       0.05128205      -0.00000000 </v>
   <v>      -0.12820513       0.05128205       0.00000000 </v>
   <v>      -0.10256410       0.05128205       0.00000000 </v>
   <v>      -0.07692308       0.05128205      -0.00000000 </v>
   <v>      -0.05128205       0.05128205      -0.00000000 </v>
   <v>       0.07692308       0.07692308      -0.00000000 </v>
   <v>       0.10256410       0.07692308       0.00000000 </v>
   <v>       0.12820513       0.07692308      -0.00000000 </v>
   <v>       0.15384615       0.07692308      -0.00000000 </v>
   <v>       0.17948718       0.07692308       0.00000000 </v>
   <v>       0.20512821       0.07692308       0.00000000 </v>
   <v>       0.23076923       0.07692308      -0.00000000 </v>
   <v>       0.25641026       0.07692308      -0.00000000 </v>
   <v>       0.28205128       0.07692308       0.00000000 </v>
   <v>       0.30769231       0.07692308       0.00000000 </v>
   <v>       0.33333333       0.07692308      -0.00000000 </v>
   <v>       0.35897436       0.07692308      -0.00000000 </v>
   <v>       0.38461538       0.07692308       0.00000000 </v>
   <v>       0.41025641       0.07692308       0.00000000 </v>
   <v>       0.43589744       0.07692308      -0.00000000 </v>
   <v>       0.46153846       0.07692308      -0.00000000 </v>
   <v>       0.48717949       0.07692308       0.00000000 </v>
   <v>      -0.48717949       0.07692308       0.00000000 </v>
   <v>      -0.46153846       0.07692308      -0.00000000 </v>
   <v>      -0.43589744       0.07692308      -0.00000000 </v>
   <v>      -0.41025641       0.07692308       0.00000000 </v>
   <v>      -0.38461538       0.07692308       0.00000000 </v>
   <v>      -0.35897436       0.07692308      -0.00000000 </v>
   <v>      -0.33333333       0.07692308      -0.00000000 </v>
   <v>      -0.30769231       0.07692308       0.00000000 </v>
   <v>      -0.28205128       0.07692308       0.00000000 </v>
   <v>      -0.25641026       0.07692308      -0.00000000 </v>
   <v>      -0.23076923       0.07692308      -0.00000000 </v>
   <v>      -0.20512821       0.07692308       0.00000000 </v>
   <v>      -0.17948718       0.07692308       0.00000000 </v>
   <v>      -0.15384615       0.07692308      -0.00000000 </v>
   <v>      -0.12820513       0.07692308      -0.00000000 </v>
   <v>      -0.10256410       0.07692308       0.00000000 </v>
   <v>      -0.07692308       0.07692308       0.00000000 </v>
   <v>       0.10256410       0.10256410      -0.00000000 </v>
   <v>       0.12820513       0.10256410       0.00000000 </v>
   <v>       0.15384615       0.10256410      -0.00000000 </v>
   <v>       0.17948718       0.10256410      -0.00000000 </v>
   <v>       0.20512821       0.10256410       0.00000000 </v>
   <v>       0.23076923       0.10256410       0.00000000 </v>
   <v>       0.25641026       0.10256410      -0.00000000 </v>
   <v>       0.28205128       0.10256410      -0.00000000 </v>
   <v>       0.30769231       0.10256410       0.00000000 </v>
   <v>       0.33333333       0.10256410       0.00000000 </v>
   <v>       0.35897436       0.10256410      -0.00000000 </v>
   <v>       0.38461538       0.10256410      -0.00000000 </v>
   <v>       0.41025641       0.10256410       0.00000000 </v>
   <v>       0.43589744       0.10256410       0.00000000 </v>
   <v>       0.46153846       0.10256410      -0.00000000 </v>
   <v>       0.48717949       0.10256410      -0.00000000 </v>
   <v>      -0.48717949       0.10256410       0.00000000 </v>
   <v>      -0.46153846       0.10256410       0.00000000 </v>
   <v>      -0.43589744       0.10256410      -0.00000000 </v>
   <v>      -0.41025641       0.10256410      -0.00000000 </v>
   <v>      -0.38461538       0.10256410       0.00000000 </v>
   <v>      -0.35897436       0.10256410       0.00000000 </v>
   <v>      -0.33333333       0.10256410      -0.00000000 </v>
   <v>      -0.30769231       0.10256410      -0.00000000 </v>
   <v>      -0.28205128       0.10256410       0.00000000 </v>
   <v>      -0.25641026       0.10256410       0.00000000 </v>
   <v>      -0.23076923       0.10256410      -0.00000000 </v>
   <v>      -0.20512821       0.10256410      -0.00000000 </v>
   <v>      -0.17948718       0.10256410       0.00000000 </v>
   <v>      -0.15384615       0.10256410       0.00000000 </v>
   <v>      -0.12820513       0.10256410      -0.00000000 </v>
   <v>      -0.10256410       0.10256410      -0.00000000 </v>
   <v>       0.12820513       0.12820513      -0.00000000 </v>
   <v>       0.15384615       0.12820513       0.00000000 </v>
   <v>       0.17948718       0.12820513      -0.00000000 </v>
   <v>       0.20512821       0.12820513      -0.00000000 </v>
   <v>       0.23076923       0.12820513       0.00000000 </v>
   <v>       0.25641026       0.12820513       0.00000000 </v>
   <v>       0.28205128       0.12820513      -0.00000000 </v>
   <v>       0.30769231       0.12820513      -0.00000000 </v>
   <v>       0.33333333       0.12820513       0.00000000 </v>
   <v>       0.35897436       0.12820513       0.00000000 </v>
   <v>       0.38461538       0.12820513      -0.00000000 </v>
   <v>       0.41025641       0.12820513      -0.00000000 </v>
   <v>       0.43589744       0.12820513       0.00000000 </v>
   <v>       0.46153846       0.12820513       0.00000000 </v>
   <v>       0.48717949       0.12820513      -0.00000000 </v>
   <v>      -0.48717949       0.12820513      -0.00000000 </v>
   <v>      -0.46153846       0.12820513       0.00000000 </v>
   <v>      -0.43589744       0.12820513       0.00000000 </v>
   <v>      -0.41025641       0.12820513      -0.00000000 </v>
   <v>      -0.38461538       0.12820513      -0.00000000 </v>
   <v>      -0.35897436       0.12820513       0.00000000 </v>
   <v>      -0.33333333       0.12820513       0.00000000 </v>
   <v>      -0.30769231       0.12820513      -0.00000000 </v>
   <v>      -0.28205128       0.12820513      -0.00000000 </v>
   <v>      -0.25641026       0.12820513       0.00000000 </v>
   <v>      -0.23076923       0.12820513       0.00000000 </v>
   <v>      -0.20512821       0.12820513      -0.00000000 </v>
   <v>      -0.17948718       0.12820513      -0.00000000 </v>
   <v>      -0.15384615       0.12820513       0.00000000 </v>
   <v>      -0.12820513       0.12820513       0.00000000 </v>
   <v>       0.15384615       0.15384615      -0.00000000 </v>
   <v>       0.17948718       0.15384615       0.00000000 </v>
   <v>       0.20512821       0.15384615      -0.00000000 </v>
   <v>       0.23076923       0.15384615      -0.00000000 </v>
   <v>       0.25641026       0.15384615       0.00000000 </v>
   <v>       0.28205128       0.15384615       0.00000000 </v>
   <v>       0.30769231       0.15384615      -0.00000000 </v>
   <v>       0.33333333       0.15384615      -0.00000000 </v>
   <v>       0.35897436       0.15384615       0.00000000 </v>
   <v>       0.38461538       0.15384615       0.00000000 </v>
   <v>       0.41025641       0.15384615      -0.00000000 </v>
   <v>       0.43589744       0.15384615      -0.00000000 </v>
   <v>       0.46153846       0.15384615       0.00000000 </v>
   <v>       0.48717949       0.15384615       0.00000000 </v>
   <v>      -0.48717949       0.15384615      -0.00000000 </v>
   <v>      -0.46153846       0.15384615      -0.00000000 </v>
   <v>      -0.43589744       0.15384615       0.00000000 </v>
   <v>      -0.41025641       0.15384615       0.00000000 </v>
   <v>      -0.38461538       0.15384615      -0.00000000 </v>
   <v>      -0.35897436       0.15384615      -0.00000000 </v>
   <v>      -0.33333333       0.15384615       0.00000000 </v>
   <v>      -0.30769231       0.15384615       0.00000000 </v>
   <v>      -0.28205128       0.15384615      -0.00000000 </v>
   <v>      -0.25641026       0.15384615      -0.00000000 </v>
   <v>      -0.23076923       0.15384615       0.00000000 </v>
   <v>      -0.20512821       0.15384615       0.00000000 </v>
   <v>      -0.17948718       0.15384615      -0.00000000 </v>
   <v>      -0.15384615       0.15384615      -0.00000000 </v>
   <v>       0.17948718       0.17948718      -0.00000000 </v>
   <v>       0.20512821       0.17948718       0.00000000 </v>
   <v>       0.23076923       0.17948718      -0.00000000 </v>
   <v>       0.25641026       0.17948718      -0.00000000 </v>
   <v>       0.28205128       0.17948718       0.00000000 </v>
   <v>       0.30769231       0.17948718       0.00000000 </v>
   <v>       0.33333333       0.17948718      -0.00000000 </v>
   <v>       0.35897436       0.17948718      -0.00000000 </v>
   <v>       0.38461538       0.17948718       0.00000000 </v>
   <v>       0.41025641       0.17948718       0.00000000 </v>
   <v>       0.43589744       0.17948718      -0.00000000 </v>
   <v>       0.46153846       0.17948718      -0.00000000 </v>
   <v>       0.48717949       0.17948718       0.00000000 </v>
   <v>      -0.48717949       0.17948718       0.00000000 </v>
   <v>      -0.46153846       0.17948718      -0.00000000 </v>
   <v>      -0.43589744       0.17948718      -0.00000000 </v>
   <v>      -0.41025641       0.17948718       0.00000000 </v>
   <v>      -0.38461538       0.17948718       0.00000000 </v>
   <v>      -0.35897436       0.17948718      -0.00000000 </v>
   <v>      -0.33333333       0.17948718      -0.00000000 </v>
   <v>      -0.30769231       0.17948718       0.00000000 </v>
   <v>      -0.28205128       0.17948718       0.00000000 </v>
   <v>      -0.25641026       0.17948718      -0.00000000 </v>
   <v>      -0.23076923       0.17948718      -0.00000000 </v>
   <v>      -0.20512821       0.17948718       0.00000000 </v>
   <v>      -0.17948718       0.17948718       0.00000000 </v>
   <v>       0.20512821       0.20512821      -0.00000000 </v>
   <v>       0.23076923       0.20512821       0.00000000 </v>
   <v>       0.25641026       0.20512821      -0.00000000 </v>
   <v>       0.28205128       0.20512821      -0.00000000 </v>
   <v>       0.30769231       0.20512821       0.00000000 </v>
   <v>       0.33333333       0.20512821       0.00000000 </v>
   <v>       0.35897436       0.20512821      -0.00000000 </v>
   <v>       0.38461538       0.20512821      -0.00000000 </v>
   <v>       0.41025641       0.20512821       0.00000000 </v>
   <v>       0.43589744       0.20512821       0.00000000 </v>
   <v>       0.46153846       0.20512821      -0.00000000 </v>
   <v>       0.48717949       0.20512821      -0.00000000 </v>
   <v>      -0.48717949       0.20512821       0.00000000 </v>
   <v>      -0.46153846       0.20512821       0.00000000 </v>
   <v>      -0.43589744       0.20512821      -0.00000000 </v>
   <v>      -0.41025641       0.20512821      -0.00000000 </v>
   <v>      -0.38461538       0.20512821       0.00000000 </v>
   <v>      -0.35897436       0.20512821       0.00000000 </v>
   <v>      -0.33333333       0.20512821      -0.00000000 </v>
   <v>      -0.30769231       0.20512821      -0.00000000 </v>
   <v>      -0.28205128       0.20512821       0.00000000 </v>
   <v>      -0.25641026       0.20512821       0.00000000 </v>
   <v>      -0.23076923       0.20512821      -0.00000000 </v>
   <v>      -0.20512821       0.20512821      -0.00000000 </v>
   <v>       0.23076923       0.23076923      -0.00000000 </v>
   <v>       0.25641026       0.23076923       0.00000000 </v>
   <v>       0.28205128       0.23076923      -0.00000000 </v>
   <v>       0.30769231       0.23076923      -0.00000000 </v>
   <v>       0.33333333       0.23076923       0.00000000 </v>
   <v>       0.35897436       0.23076923       0.00000000 </v>
   <v>       0.38461538       0.23076923      -0.00000000 </v>
   <v>       0.41025641       0.23076923      -0.00000000 </v>
   <v>       0.43589744       0.23076923       0.00000000 </v>
   <v>       0.46153846       0.23076923       0.00000000 </v>
   <v>       0.48717949       0.23076923      -0.00000000 </v>
   <v>      -0.48717949       0.23076923      -0.00000000 </v>
   <v>      -0.46153846       0.23076923       0.00000000 </v>
   <v>      -0.43589744       0.23076923       0.00000000 </v>
   <v>      -0.41025641       0.23076923      -0.00000000 </v>
   <v>      -0.38461538       0.23076923      -0.00000000 </v>
   <v>      -0.35897436       0.23076923       0.00000000 </v>
   <v>      -0.33333333       0.23076923       0.00000000 </v>
   <v>      -0.30769231       0.23076923      -0.00000000 </v>
   <v>      -0.28205128       0.23076923      -0.00000000 </v>
   <v>      -0.25641026       0.23076923       0.00000000 </v>
   <v>      -0.23076923       0.23076923       0.00000000 </v>
   <v>       0.25641026       0.25641026      -0.00000000 </v>
   <v>       0.28205128       0.25641026       0.00000000 </v>
   <v>       0.30769231       0.25641026      -0.00000000 </v>
   <v>       0.33333333       0.25641026      -0.00000000 </v>
   <v>       0.35897436       0.25641026       0.00000000 </v>
   <v>       0.38461538       0.25641026       0.00000000 </v>
   <v>       0.41025641       0.25641026      -0.00000000 </v>
   <v>       0.43589744       0.25641026      -0.00000000 </v>
   <v>       0.46153846       0.25641026       0.00000000 </v>
   <v>       0.48717949       0.25641026       0.00000000 </v>
   <v>      -0.48717949       0.25641026      -0.00000000 </v>
   <v>      -0.46153846       0.25641026      -0.00000000 </v>
   <v>      -0.43589744       0.25641026       0.00000000 </v>
   <v>      -0.41025641       0.25641026       0.00000000 </v>
   <v>      -0.38461538       0.25641026      -0.00000000 </v>
   <v>      -0.35897436       0.25641026      -0.00000000 </v>
   <v>      -0.33333333       0.25641026       0.00000000 </v>
   <v>      -0.30769231       0.25641026       0.00000000 </v>
   <v>      -0.28205128       0.25641026      -0.00000000 </v>
   <v>      -0.25641026       0.25641026      -0.00000000 </v>
   <v>       0.28205128       0.28205128      -0.00000000 </v>
   <v>       0.30769231       0.28205128       0.00000000 </v>
   <v>       0.33333333       0.28205128      -0.00000000 </v>
   <v>       0.35897436       0.28205128      -0.00000000 </v>
   <v>       0.38461538       0.28205128       0.00000000 </v>
   <v>       0.41025641       0.28205128       0.00000000 </v>
   <v>       0.43589744       0.28205128      -0.00000000 </v>
   <v>       0.46153846       0.28205128      -0.00000000 </v>
   <v>       0.48717949       0.28205128       0.00000000 </v>
   <v>      -0.48717949       0.28205128       0.00000000 </v>
   <v>      -0.46153846       0.28205128      -0.00000000 </v>
   <v>      -0.43589744       0.28205128      -0.00000000 </v>
   <v>      -0.41025641       0.28205128       0.00000000 </v>
   <v>      -0.38461538       0.28205128       0.00000000 </v>
   <v>      -0.35897436       0.28205128      -0.00000000 </v>
   <v>      -0.33333333       0.28205128      -0.00000000 </v>
   <v>      -0.30769231       0.28205128       0.00000000 </v>
   <v>      -0.28205128       0.28205128       0.00000000 </v>
   <v>       0.30769231       0.30769231      -0.00000000 </v>
   <v>       0.33333333       0.30769231       0.00000000 </v>
   <v>       0.35897436       0.30769231      -0.00000000 </v>
   <v>       0.38461538       0.30769231      -0.00000000 </v>
   <v>       0.41025641       0.30769231       0.00000000 </v>
   <v>       0.43589744       0.30769231       0.00000000 </v>
   <v>       0.46153846       0.30769231      -0.00000000 </v>
   <v>       0.48717949       0.30769231      -0.00000000 </v>
   <v>      -0.48717949       0.30769231       0.00000000 </v>
   <v>      -0.46153846       0.30769231       0.00000000 </v>
   <v>      -0.43589744       0.30769231      -0.00000000 </v>
   <v>      -0.41025641       0.30769231      -0.00000000 </v>
   <v>      -0.38461538       0.30769231       0.00000000 </v>
   <v>      -0.35897436       0.30769231       0.00000000 </v>
   <v>      -0.33333333       0.30769231      -0.00000000 </v>
   <v>      -0.30769231       0.30769231      -0.00000000 </v>
   <v>       0.33333333       0.33333333      -0.00000000 </v>
   <v>       0.35897436       0.33333333       0.00000000 </v>
   <v>       0.38461538       0.33333333      -0.00000000 </v>
   <v>       0.41025641       0.33333333      -0.00000000 </v>
   <v>       0.43589744       0.33333333       0.00000000 </v>
   <v>       0.46153846       0.33333333       0.00000000 </v>
   <v>       0.48717949       0.33333333      -0.00000000 </v>
   <v>      -0.48717949       0.33333333      -0.00000000 </v>
   <v>      -0.46153846       0.33333333       0.00000000 </v>
   <v>      -0.43589744       0.33333333       0.00000000 </v>
   <v>      -0.41025641       0.33333333      -0.00000000 </v>
   <v>      -0.38461538       0.33333333      -0.00000000 </v>
   <v>      -0.35897436       0.33333333       0.00000000 </v>
   <v>      -0.33333333       0.33333333       0.00000000 </v>
   <v>       0.35897436       0.35897436      -0.00000000 </v>
   <v>       0.38461538       0.35897436       0.00000000 </v>
   <v>       0.41025641       0.35897436      -0.00000000 </v>
   <v>       0.43589744       0.35897436      -0.00000000 </v>
   <v>       0.46153846       0.35897436       0.00000000 </v>
   <v>       0.48717949       0.35897436       0.00000000 </v>
   <v>      -0.48717949       0.35897436      -0.00000000 </v>
   <v>      -0.46153846       0.35897436      -0.00000000 </v>
   <v>      -0.43589744       0.35897436       0.00000000 </v>
   <v>      -0.41025641       0.35897436       0.00000000 </v>
   <v>      -0.38461538       0.35897436      -0.00000000 </v>
   <v>      -0.35897436       0.35897436      -0.00000000 </v>
   <v>       0.38461538       0.38461538      -0.00000000 </v>
   <v>       0.41025641       0.38461538       0.00000000 </v>
   <v>       0.43589744       0.38461538      -0.00000000 </v>
   <v>       0.46153846       0.38461538      -0.00000000 </v>
   <v>       0.48717949       0.38461538       0.00000000 </v>
   <v>      -0.48717949       0.38461538       0.00000000 </v>
   <v>      -0.46153846       0.38461538      -0.00000000 </v>
   <v>      -0.43589744       0.38461538      -0.00000000 </v>
   <v>      -0.41025641       0.38461538       0.00000000 </v>
   <v>      -0.38461538       0.38461538       0.00000000 </v>
   <v>       0.41025641       0.41025641      -0.00000000 </v>
   <v>       0.43589744       0.41025641       0.00000000 </v>
   <v>       0.46153846       0.41025641      -0.00000000 </v>
   <v>       0.48717949       0.41025641      -0.00000000 </v>
   <v>      -0.48717949       0.41025641       0.00000000 </v>
   <v>      -0.46153846       0.41025641       0.00000000 </v>
   <v>      -0.43589744       0.41025641      -0.00000000 </v>
   <v>      -0.41025641       0.41025641      -0.00000000 </v>
   <v>       0.43589744       0.43589744      -0.00000000 </v>
   <v>       0.46153846       0.43589744       0.00000000 </v>
   <v>       0.48717949       0.43589744      -0.00000000 </v>
   <v>      -0.48717949       0.43589744      -0.00000000 </v>
   <v>      -0.46153846       0.43589744       0.00000000 </v>
   <v>      -0.43589744       0.43589744       0.00000000 </v>
   <v>       0.46153846       0.46153846      -0.00000000 </v>
   <v>       0.48717949       0.46153846       0.00000000 </v>
   <v>      -0.48717949       0.46153846      -0.00000000 </v>
   <v>      -0.46153846       0.46153846      -0.00000000 </v>
   <v>       0.48717949       0.48717949      -0.00000000 </v>
   <v>      -0.48717949       0.48717949       0.00000000 </v>
   <v>       0.07692308       0.05128205       0.02564103 </v>
   <v>       0.10256410       0.05128205       0.02564103 </v>
   <v>       0.12820513       0.05128205       0.02564103 </v>
   <v>       0.15384615       0.05128205       0.02564103 </v>
   <v>       0.17948718       0.05128205       0.02564103 </v>
   <v>       0.20512821       0.05128205       0.02564103 </v>
   <v>       0.23076923       0.05128205       0.02564103 </v>
   <v>       0.25641026       0.05128205       0.02564103 </v>
   <v>       0.28205128       0.05128205       0.02564103 </v>
   <v>       0.30769231       0.05128205       0.02564103 </v>
   <v>       0.33333333       0.05128205       0.02564103 </v>
   <v>       0.35897436       0.05128205       0.02564103 </v>
   <v>       0.38461538       0.05128205       0.02564103 </v>
   <v>       0.41025641       0.05128205       0.02564103 </v>
   <v>       0.43589744       0.05128205       0.02564103 </v>
   <v>       0.46153846       0.05128205       0.02564103 </v>
   <v>       0.48717949       0.05128205       0.02564103 </v>
   <v>      -0.48717949       0.05128205       0.02564103 </v>
   <v>       0.10256410       0.07692308       0.02564103 </v>
   <v>       0.12820513       0.07692308       0.02564103 </v>
   <v>       0.15384615       0.07692308       0.02564103 </v>
   <v>       0.17948718       0.07692308       0.02564103 </v>
   <v>       0.20512821       0.07692308       0.02564103 </v>
   <v>       0.23076923       0.07692308       0.02564103 </v>
   <v>       0.25641026       0.07692308       0.02564103 </v>
   <v>       0.28205128       0.07692308       0.02564103 </v>
   <v>       0.30769231       0.07692308       0.02564103 </v>
   <v>       0.33333333       0.07692308       0.02564103 </v>
   <v>       0.35897436       0.07692308       0.02564103 </v>
   <v>       0.38461538       0.07692308       0.02564103 </v>
   <v>       0.41025641       0.07692308       0.02564103 </v>
   <v>       0.43589744       0.07692308       0.02564103 </v>
   <v>       0.46153846       0.07692308       0.02564103 </v>
   <v>       0.48717949       0.07692308       0.02564103 </v>
   <v>      -0.48717949       0.07692308       0.02564103 </v>
   <v>      -0.46153846       0.07692308       0.02564103 </v>
   <v>      -0.43589744       0.07692308       0.02564103 </v>
   <v>      -0.41025641       0.07692308       0.02564103 </v>
   <v>      -0.38461538       0.07692308       0.02564103 </v>
   <v>      -0.35897436       0.07692308       0.02564103 </v>
   <v>      -0.33333333       0.07692308       0.02564103 </v>
   <v>      -0.30769231       0.07692308       0.02564103 </v>
   <v>      -0.28205128       0.07692308       0.02564103 </v>
   <v>      -0.25641026       0.07692308       0.02564103 </v>
   <v>      -0.23076923       0.07692308       0.02564103 </v>
   <v>      -0.20512821       0.07692308       0.02564103 </v>
   <v>      -0.17948718       0.07692308       0.02564103 </v>
   <v>      -0.15384615       0.07692308       0.02564103 </v>
   <v>      -0.12820513       0.07692308       0.02564103 </v>
   <v>      -0.10256410       0.07692308       0.02564103 </v>
   <v>      -0.07692308       0.07692308       0.02564103 </v>
   <v>      -0.05128205       0.07692308       0.02564103 </v>
   <v>       0.12820513       0.10256410       0.02564103 </v>
   <v>       0.15384615       0.10256410       0.02564103 </v>
   <v>       0.17948718       0.10256410       0.02564103 </v>
   <v>       0.20512821       0.10256410       0.02564103 </v>
   <v>       0.23076923       0.10256410       0.02564103 </v>
   <v>       0.25641026       0.10256410       0.02564103 </v>
   <v>       0.28205128       0.10256410       0.02564103 </v>
   <v>       0.30769231       0.10256410       0.02564103 </v>
   <v>       0.33333333       0.10256410       0.02564103 </v>
   <v>       0.35897436       0.10256410       0.02564103 </v>
   <v>       0.38461538       0.10256410       0.02564103 </v>
   <v>       0.41025641       0.10256410       0.02564103 </v>
   <v>       0.43589744       0.10256410       0.02564103 </v>
   <v>       0.46153846       0.10256410       0.02564103 </v>
   <v>       0.48717949       0.10256410       0.02564103 </v>
   <v>      -0.48717949       0.10256410       0.02564103 </v>
   <v>      -0.46153846       0.10256410       0.02564103 </v>
   <v>      -0.43589744       0.10256410       0.02564103 </v>
   <v>      -0.41025641       0.10256410       0.02564103 </v>
   <v>      -0.38461538       0.10256410       0.02564103 </v>
   <v>      -0.35897436       0.10256410       0.02564103 </v>
   <v>      -0.33333333       0.10256410       0.02564103 </v>
   <v>      -0.30769231       0.10256410       0.02564103 </v>
   <v>      -0.28205128       0.10256410       0.02564103 </v>
   <v>      -0.25641026       0.10256410       0.02564103 </v>
   <v>      -0.23076923       0.10256410       0.02564103 </v>
   <v>      -0.20512821       0.10256410       0.02564103 </v>
   <v>      -0.17948718       0.10256410       0.02564103 </v>
   <v>      -0.15384615       0.10256410       0.02564103 </v>
   <v>      -0.12820513       0.10256410       0.02564103 </v>
   <v>      -0.10256410       0.10256410       0.02564103 </v>
   <v>      -0.07692308       0.10256410       0.02564103 </v>
   <v>       0.15384615       0.12820513       0.02564103 </v>
   <v>       0.17948718       0.12820513       0.02564103 </v>
   <v>       0.20512821       0.12820513       0.02564103 </v>
   <v>       0.23076923       0.12820513       0.02564103 </v>
   <v>       0.25641026       0.12820513       0.02564103 </v>
   <v>       0.28205128       0.12820513       0.02564103 </v>
   <v>       0.30769231       0.12820513       0.02564103 </v>
   <v>       0.33333333       0.12820513       0.02564103 </v>
   <v>       0.35897436       0.12820513       0.02564103 </v>
   <v>       0.38461538       0.12820513       0.02564103 </v>
   <v>       0.41025641       0.12820513       0.02564103 </v>
   <v>       0.43589744       0.12820513       0.02564103 </v>
   <v>       0.46153846       0.12820513       0.02564103 </v>
   <v>       0.48717949       0.12820513       0.02564103 </v>
   <v>      -0.48717949       0.12820513       0.02564103 </v>
   <v>      -0.46153846       0.12820513       0.02564103 </v>
   <v>      -0.43589744       0.12820513       0.02564103 </v>
   <v>      -0.41025641       0.12820513       0.02564103 </v>
   <v>      -0.38461538       0.12820513       0.02564103 </v>
   <v>      -0.35897436       0.12820513       0.02564103 </v>
   <v>      -0.33333333       0.12820513       0.02564103 </v>
   <v>      -0.30769231       0.12820513       0.02564103 </v>
   <v>      -0.28205128       0.12820513       0.02564103 </v>
   <v>      -0.25641026       0.12820513       0.02564103 </v>
   <v>      -0.23076923       0.12820513       0.02564103 </v>
   <v>      -0.20512821       0.12820513       0.02564103 </v>
   <v>      -0.17948718       0.12820513       0.02564103 </v>
   <v>      -0.15384615       0.12820513       0.02564103 </v>
   <v>      -0.12820513       0.12820513       0.02564103 </v>
   <v>      -0.10256410       0.12820513       0.02564103 </v>
   <v>       0.17948718       0.15384615       0.02564103 </v>
   <v>       0.20512821       0.15384615       0.02564103 </v>
   <v>       0.23076923       0.15384615       0.02564103 </v>
   <v>       0.25641026       0.15384615       0.02564103 </v>
   <v>       0.28205128       0.15384615       0.02564103 </v>
   <v>       0.30769231       0.15384615       0.02564103 </v>
   <v>       0.33333333       0.15384615       0.02564103 </v>
   <v>       0.35897436       0.15384615       0.02564103 </v>
   <v>       0.38461538       0.15384615       0.02564103 </v>
   <v>       0.41025641       0.15384615       0.02564103 </v>
   <v>       0.43589744       0.15384615       0.02564103 </v>
   <v>       0.46153846       0.15384615       0.02564103 </v>
   <v>       0.48717949       0.15384615       0.02564103 </v>
   <v>      -0.48717949       0.15384615       0.02564103 </v>
   <v>      -0.46153846       0.15384615       0.02564103 </v>
   <v>      -0.43589744       0.15384615       0.02564103 </v>
   <v>      -0.41025641       0.15384615       0.02564103 </v>
   <v>      -0.38461538       0.15384615       0.02564103 </v>
   <v>      -0.35897436       0.15384615       0.02564103 </v>
   <v>      -0.33333333       0.15384615       0.02564103 </v>
   <v>      -0.30769231       0.15384615       0.02564103 </v>
   <v>      -0.28205128       0.15384615       0.02564103 </v>
   <v>      -0.25641026       0.15384615       0.02564103 </v>
   <v>      -0.23076923       0.15384615       0.02564103 </v>
   <v>      -0.20512821       0.15384615       0.02564103 </v>
   <v>      -0.17948718       0.15384615       0.02564103 </v>
   <v>      -0.15384615       0.15384615       0.02564103 </v>
   <v>      -0.12820513       0.15384615       0.02564103 </v>
   <v>       0.20512821       0.17948718       0.02564103 </v>
   <v>       0.23076923       0.17948718       0.02564103 </v>
   <v>       0.25641026       0.17948718       0.02564103 </v>
   <v>       0.28205128       0.17948718       0.02564103 </v>
   <v>       0.30769231       0.17948718       0.02564103 </v>
   <v>       0.33333333       0.17948718       0.02564103 </v>
   <v>       0.35897436       0.17948718       0.02564103 </v>
   <v>       0.38461538       0.17948718       0.02564103 </v>
   <v>       0.41025641       0.17948718       0.02564103 </v>
   <v>       0.43589744       0.17948718       0.02564103 </v>
   <v>       0.46153846       0.17948718       0.02564103 </v>
   <v>       0.48717949       0.17948718       0.02564103 </v>
   <v>      -0.48717949       0.17948718       0.02564103 </v>
   <v>      -0.46153846       0.17948718       0.02564103 </v>
   <v>      -0.43589744       0.17948718       0.02564103 </v>
   <v>      -0.41025641       0.17948718       0.02564103 </v>
   <v>      -0.38461538       0.17948718       0.02564103 </v>
   <v>      -0.35897436       0.17948718       0.02564103 </v>
   <v>      -0.33333333       0.17948718       0.02564103 </v>
   <v>      -0.30769231       0.17948718       0.02564103 </v>
   <v>      -0.28205128       0.17948718       0.02564103 </v>
   <v>      -0.25641026       0.17948718       0.02564103 </v>
   <v>      -0.23076923       0.17948718       0.02564103 </v>
   <v>      -0.20512821       0.17948718       0.02564103 </v>
   <v>      -0.17948718       0.17948718       0.02564103 </v>
   <v>      -0.15384615       0.17948718       0.02564103 </v>
   <v>       0.23076923       0.20512821       0.02564103 </v>
   <v>       0.25641026       0.20512821       0.02564103 </v>
   <v>       0.28205128       0.20512821       0.02564103 </v>
   <v>       0.30769231       0.20512821       0.02564103 </v>
   <v>       0.33333333       0.20512821       0.02564103 </v>
   <v>       0.35897436       0.20512821       0.02564103 </v>
   <v>       0.38461538       0.20512821       0.02564103 </v>
   <v>       0.41025641       0.20512821       0.02564103 </v>
   <v>       0.43589744       0.20512821       0.02564103 </v>
   <v>       0.46153846       0.20512821       0.02564103 </v>
   <v>       0.48717949       0.20512821       0.02564103 </v>
   <v>      -0.48717949       0.20512821       0.02564103 </v>
   <v>      -0.46153846       0.20512821       0.02564103 </v>
   <v>      -0.43589744       0.20512821       0.02564103 </v>
   <v>      -0.41025641       0.20512821       0.02564103 </v>
   <v>      -0.38461538       0.20512821       0.02564103 </v>
   <v>      -0.35897436       0.20512821       0.02564103 </v>
   <v>      -0.33333333       0.20512821       0.02564103 </v>
   <v>      -0.30769231       0.20512821       0.02564103 </v>
   <v>      -0.28205128       0.20512821       0.02564103 </v>
   <v>      -0.25641026       0.20512821       0.02564103 </v>
   <v>      -0.23076923       0.20512821       0.02564103 </v>
   <v>      -0.20512821       0.20512821       0.02564103 </v>
   <v>      -0.17948718       0.20512821       0.02564103 </v>
   <v>       0.25641026       0.23076923       0.02564103 </v>
   <v>       0.28205128       0.23076923       0.02564103 </v>
   <v>       0.30769231       0.23076923       0.02564103 </v>
   <v>       0.33333333       0.23076923       0.02564103 </v>
   <v>       0.35897436       0.23076923       0.02564103 </v>
   <v>       0.38461538       0.23076923       0.02564103 </v>
   <v>       0.41025641       0.23076923       0.02564103 </v>
   <v>       0.43589744       0.23076923       0.02564103 </v>
   <v>       0.46153846       0.23076923       0.02564103 </v>
   <v>       0.48717949       0.23076923       0.02564103 </v>
   <v>      -0.48717949       0.23076923       0.02564103 </v>
   <v>      -0.46153846       0.23076923       0.02564103 </v>
   <v>      -0.43589744       0.23076923       0.02564103 </v>
   <v>      -0.41025641       0.23076923       0.02564103 </v>
   <v>      -0.38461538       0.23076923       0.02564103 </v>
   <v>      -0.35897436       0.23076923       0.02564103 </v>
   <v>      -0.33333333       0.23076923       0.02564103 </v>
   <v>      -0.30769231       0.23076923       0.02564103 </v>
   <v>      -0.28205128       0.23076923       0.02564103 </v>
   <v>      -0.25641026       0.23076923       0.02564103 </v>
   <v>      -0.23076923       0.23076923       0.02564103 </v>
   <v>      -0.20512821       0.23076923       0.02564103 </v>
   <v>       0.28205128       0.25641026       0.02564103 </v>
   <v>       0.30769231       0.25641026       0.02564103 </v>
   <v>       0.33333333       0.25641026       0.02564103 </v>
   <v>       0.35897436       0.25641026       0.02564103 </v>
   <v>       0.38461538       0.25641026       0.02564103 </v>
   <v>       0.41025641       0.25641026       0.02564103 </v>
   <v>       0.43589744       0.25641026       0.02564103 </v>
   <v>       0.46153846       0.25641026       0.02564103 </v>
   <v>       0.48717949       0.25641026       0.02564103 </v>
   <v>      -0.48717949       0.25641026       0.02564103 </v>
   <v>      -0.46153846       0.25641026       0.02564103 </v>
   <v>      -0.43589744       0.25641026       0.02564103 </v>
   <v>      -0.41025641       0.25641026       0.02564103 </v>
   <v>      -0.38461538       0.25641026       0.02564103 </v>
   <v>      -0.35897436       0.25641026       0.02564103 </v>
   <v>      -0.33333333       0.25641026       0.02564103 </v>
   <v>      -0.30769231       0.25641026       0.02564103 </v>
   <v>      -0.28205128       0.25641026       0.02564103 </v>
   <v>      -0.25641026       0.25641026       0.02564103 </v>
   <v>      -0.23076923       0.25641026       0.02564103 </v>
   <v>       0.30769231       0.28205128       0.02564103 </v>
   <v>       0.33333333       0.28205128       0.02564103 </v>
   <v>       0.35897436       0.28205128       0.02564103 </v>
   <v>       0.38461538       0.28205128       0.02564103 </v>
   <v>       0.41025641       0.28205128       0.02564103 </v>
   <v>       0.43589744       0.28205128       0.02564103 </v>
   <v>       0.46153846       0.28205128       0.02564103 </v>
   <v>       0.48717949       0.28205128       0.02564103 </v>
   <v>      -0.48717949       0.28205128       0.02564103 </v>
   <v>      -0.46153846       0.28205128       0.02564103 </v>
   <v>      -0.43589744       0.28205128       0.02564103 </v>
   <v>      -0.41025641       0.28205128       0.02564103 </v>
   <v>      -0.38461538       0.28205128       0.02564103 </v>
   <v>      -0.35897436       0.28205128       0.02564103 </v>
   <v>      -0.33333333       0.28205128       0.02564103 </v>
   <v>      -0.30769231       0.28205128       0.02564103 </v>
   <v>      -0.28205128       0.28205128       0.02564103 </v>
   <v>      -0.25641026       0.28205128       0.02564103 </v>
   <v>       0.33333333       0.30769231       0.02564103 </v>
   <v>       0.35897436       0.30769231       0.02564103 </v>
   <v>       0.38461538       0.30769231       0.02564103 </v>
   <v>       0.41025641       0.30769231       0.02564103 </v>
   <v>       0.43589744       0.30769231       0.02564103 </v>
   <v>       0.46153846       0.30769231       0.02564103 </v>
   <v>       0.48717949       0.30769231       0.02564103 </v>
   <v>      -0.48717949       0.30769231       0.02564103 </v>
   <v>      -0.46153846       0.30769231       0.02564103 </v>
   <v>      -0.43589744       0.30769231       0.02564103 </v>
   <v>      -0.41025641       0.30769231       0.02564103 </v>
   <v>      -0.38461538       0.30769231       0.02564103 </v>
   <v>      -0.35897436       0.30769231       0.02564103 </v>
   <v>      -0.33333333       0.30769231       0.02564103 </v>
   <v>      -0.30769231       0.30769231       0.02564103 </v>
   <v>      -0.28205128       0.30769231       0.02564103 </v>
   <v>       0.35897436       0.33333333       0.02564103 </v>
   <v>       0.38461538       0.33333333       0.02564103 </v>
   <v>       0.41025641       0.33333333       0.02564103 </v>
   <v>       0.43589744       0.33333333       0.02564103 </v>
   <v>       0.46153846       0.33333333       0.02564103 </v>
   <v>       0.48717949       0.33333333       0.02564103 </v>
   <v>      -0.48717949       0.33333333       0.02564103 </v>
   <v>      -0.46153846       0.33333333       0.02564103 </v>
   <v>      -0.43589744       0.33333333       0.02564103 </v>
   <v>      -0.41025641       0.33333333       0.02564103 </v>
   <v>      -0.38461538       0.33333333       0.02564103 </v>
   <v>      -0.35897436       0.33333333       0.02564103 </v>
   <v>      -0.33333333       0.33333333       0.02564103 </v>
   <v>      -0.30769231       0.33333333       0.02564103 </v>
   <v>       0.38461538       0.35897436       0.02564103 </v>
   <v>       0.41025641       0.35897436       0.02564103 </v>
   <v>       0.43589744       0.35897436       0.02564103 </v>
   <v>       0.46153846       0.35897436       0.02564103 </v>
   <v>       0.48717949       0.35897436       0.02564103 </v>
   <v>      -0.48717949       0.35897436       0.02564103 </v>
   <v>      -0.46153846       0.35897436       0.02564103 </v>
   <v>      -0.43589744       0.35897436       0.02564103 </v>
   <v>      -0.41025641       0.35897436       0.02564103 </v>
   <v>      -0.38461538       0.35897436       0.02564103 </v>
   <v>      -0.35897436       0.35897436       0.02564103 </v>
   <v>      -0.33333333       0.35897436       0.02564103 </v>
   <v>       0.41025641       0.38461538       0.02564103 </v>
   <v>       0.43589744       0.38461538       0.02564103 </v>
   <v>       0.46153846       0.38461538       0.02564103 </v>
   <v>       0.48717949       0.38461538       0.02564103 </v>
   <v>      -0.48717949       0.38461538       0.02564103 </v>
   <v>      -0.46153846       0.38461538       0.02564103 </v>
   <v>      -0.43589744       0.38461538       0.02564103 </v>
   <v>      -0.41025641       0.38461538       0.02564103 </v>
   <v>      -0.38461538       0.38461538       0.02564103 </v>
   <v>      -0.35897436       0.38461538       0.02564103 </v>
   <v>       0.43589744       0.41025641       0.02564103 </v>
   <v>       0.46153846       0.41025641       0.02564103 </v>
   <v>       0.48717949       0.41025641       0.02564103 </v>
   <v>      -0.48717949       0.41025641       0.02564103 </v>
   <v>      -0.46153846       0.41025641       0.02564103 </v>
   <v>      -0.43589744       0.41025641       0.02564103 </v>
   <v>      -0.41025641       0.41025641       0.02564103 </v>
   <v>      -0.38461538       0.41025641       0.02564103 </v>
   <v>       0.46153846       0.43589744       0.02564103 </v>
   <v>       0.48717949       0.43589744       0.02564103 </v>
   <v>      -0.48717949       0.43589744       0.02564103 </v>
   <v>      -0.46153846       0.43589744       0.02564103 </v>
   <v>      -0.43589744       0.43589744       0.02564103 </v>
   <v>      -0.41025641       0.43589744       0.02564103 </v>
   <v>       0.48717949       0.46153846       0.02564103 </v>
   <v>      -0.48717949       0.46153846       0.02564103 </v>
   <v>      -0.46153846       0.46153846       0.02564103 </v>
   <v>      -0.43589744       0.46153846       0.02564103 </v>
   <v>      -0.48717949       0.48717949       0.02564103 </v>
   <v>      -0.46153846       0.48717949       0.02564103 </v>
   <v>       0.15384615       0.10256410       0.05128205 </v>
   <v>       0.17948718       0.10256410       0.05128205 </v>
   <v>       0.20512821       0.10256410       0.05128205 </v>
   <v>       0.23076923       0.10256410       0.05128205 </v>
   <v>       0.25641026       0.10256410       0.05128205 </v>
   <v>       0.28205128       0.10256410       0.05128205 </v>
   <v>       0.30769231       0.10256410       0.05128205 </v>
   <v>       0.33333333       0.10256410       0.05128205 </v>
   <v>       0.35897436       0.10256410       0.05128205 </v>
   <v>       0.38461538       0.10256410       0.05128205 </v>
   <v>       0.41025641       0.10256410       0.05128205 </v>
   <v>       0.43589744       0.10256410       0.05128205 </v>
   <v>       0.46153846       0.10256410       0.05128205 </v>
   <v>       0.48717949       0.10256410       0.05128205 </v>
   <v>      -0.48717949       0.10256410       0.05128205 </v>
   <v>      -0.46153846       0.10256410       0.05128205 </v>
   <v>       0.17948718       0.12820513       0.05128205 </v>
   <v>       0.20512821       0.12820513       0.05128205 </v>
   <v>       0.23076923       0.12820513       0.05128205 </v>
   <v>       0.25641026       0.12820513       0.05128205 </v>
   <v>       0.28205128       0.12820513       0.05128205 </v>
   <v>       0.30769231       0.12820513       0.05128205 </v>
   <v>       0.33333333       0.12820513       0.05128205 </v>
   <v>       0.35897436       0.12820513       0.05128205 </v>
   <v>       0.38461538       0.12820513       0.05128205 </v>
   <v>       0.41025641       0.12820513       0.05128205 </v>
   <v>       0.43589744       0.12820513       0.05128205 </v>
   <v>       0.46153846       0.12820513       0.05128205 </v>
   <v>       0.48717949       0.12820513       0.05128205 </v>
   <v>      -0.48717949       0.12820513       0.05128205 </v>
   <v>      -0.46153846       0.12820513       0.05128205 </v>
   <v>      -0.43589744       0.12820513       0.05128205 </v>
   <v>      -0.41025641       0.12820513       0.05128205 </v>
   <v>      -0.38461538       0.12820513       0.05128205 </v>
   <v>      -0.35897436       0.12820513       0.05128205 </v>
   <v>      -0.33333333       0.12820513       0.05128205 </v>
   <v>      -0.30769231       0.12820513       0.05128205 </v>
   <v>      -0.28205128       0.12820513       0.05128205 </v>
   <v>      -0.25641026       0.12820513       0.05128205 </v>
   <v>      -0.23076923       0.12820513       0.05128205 </v>
   <v>      -0.20512821       0.12820513       0.05128205 </v>
   <v>      -0.17948718       0.12820513       0.05128205 </v>
   <v>      -0.15384615       0.12820513       0.05128205 </v>
   <v>      -0.12820513       0.12820513       0.05128205 </v>
   <v>      -0.10256410       0.12820513       0.05128205 </v>
   <v>      -0.07692308       0.12820513       0.05128205 </v>
   <v>       0.20512821       0.15384615       0.05128205 </v>
   <v>       0.23076923       0.15384615       0.05128205 </v>
   <v>       0.25641026       0.15384615       0.05128205 </v>
   <v>       0.28205128       0.15384615       0.05128205 </v>
   <v>       0.30769231       0.15384615       0.05128205 </v>
   <v>       0.33333333       0.15384615       0.05128205 </v>
   <v>       0.35897436       0.15384615       0.05128205 </v>
   <v>       0.38461538       0.15384615       0.05128205 </v>
   <v>       0.41025641       0.15384615       0.05128205 </v>
   <v>       0.43589744       0.15384615       0.05128205 </v>
   <v>       0.46153846       0.15384615       0.05128205 </v>
   <v>       0.48717949       0.15384615       0.05128205 </v>
   <v>      -0.48717949       0.15384615       0.05128205 </v>
   <v>      -0.46153846       0.15384615       0.05128205 </v>
   <v>      -0.43589744       0.15384615       0.05128205 </v>
   <v>      -0.41025641       0.15384615       0.05128205 </v>
   <v>      -0.38461538       0.15384615       0.05128205 </v>
   <v>      -0.35897436       0.15384615       0.05128205 </v>
   <v>      -0.33333333       0.15384615       0.05128205 </v>
   <v>      -0.30769231       0.15384615       0.05128205 </v>
   <v>      -0.28205128       0.15384615       0.05128205 </v>
   <v>      -0.25641026       0.15384615       0.05128205 </v>
   <v>      -0.23076923       0.15384615       0.05128205 </v>
   <v>      -0.20512821       0.15384615       0.05128205 </v>
   <v>      -0.17948718       0.15384615       0.05128205 </v>
   <v>      -0.15384615       0.15384615       0.05128205 </v>
   <v>      -0.12820513       0.15384615       0.05128205 </v>
   <v>      -0.10256410       0.15384615       0.05128205 </v>
   <v>       0.23076923       0.17948718       0.05128205 </v>
   <v>       0.25641026       0.17948718       0.05128205 </v>
   <v>       0.28205128       0.17948718       0.05128205 </v>
   <v>       0.30769231       0.17948718       0.05128205 </v>
   <v>       0.33333333       0.17948718       0.05128205 </v>
   <v>       0.35897436       0.17948718       0.05128205 </v>
   <v>       0.38461538       0.17948718       0.05128205 </v>
   <v>       0.41025641       0.17948718       0.05128205 </v>
   <v>       0.43589744       0.17948718       0.05128205 </v>
   <v>       0.46153846       0.17948718       0.05128205 </v>
   <v>       0.48717949       0.17948718       0.05128205 </v>
   <v>      -0.48717949       0.17948718       0.05128205 </v>
   <v>      -0.46153846       0.17948718       0.05128205 </v>
   <v>      -0.43589744       0.17948718       0.05128205 </v>
   <v>      -0.41025641       0.17948718       0.05128205 </v>
   <v>      -0.38461538       0.17948718       0.05128205 </v>
   <v>      -0.35897436       0.17948718       0.05128205 </v>
   <v>      -0.33333333       0.17948718       0.05128205 </v>
   <v>      -0.30769231       0.17948718       0.05128205 </v>
   <v>      -0.28205128       0.17948718       0.05128205 </v>
   <v>      -0.25641026       0.17948718       0.05128205 </v>
   <v>      -0.23076923       0.17948718       0.05128205 </v>
   <v>      -0.20512821       0.17948718       0.05128205 </v>
   <v>      -0.17948718       0.17948718       0.05128205 </v>
   <v>      -0.15384615       0.17948718       0.05128205 </v>
   <v>      -0.12820513       0.17948718       0.05128205 </v>
   <v>       0.25641026       0.20512821       0.05128205 </v>
   <v>       0.28205128       0.20512821       0.05128205 </v>
   <v>       0.30769231       0.20512821       0.05128205 </v>
   <v>       0.33333333       0.20512821       0.05128205 </v>
   <v>       0.35897436       0.20512821       0.05128205 </v>
   <v>       0.38461538       0.20512821       0.05128205 </v>
   <v>       0.41025641       0.20512821       0.05128205 </v>
   <v>       0.43589744       0.20512821       0.05128205 </v>
   <v>       0.46153846       0.20512821       0.05128205 </v>
   <v>       0.48717949       0.20512821       0.05128205 </v>
   <v>      -0.48717949       0.20512821       0.05128205 </v>
   <v>      -0.46153846       0.20512821       0.05128205 </v>
   <v>      -0.43589744       0.20512821       0.05128205 </v>
   <v>      -0.41025641       0.20512821       0.05128205 </v>
   <v>      -0.38461538       0.20512821       0.05128205 </v>
   <v>      -0.35897436       0.20512821       0.05128205 </v>
   <v>      -0.33333333       0.20512821       0.05128205 </v>
   <v>      -0.30769231       0.20512821       0.05128205 </v>
   <v>      -0.28205128       0.20512821       0.05128205 </v>
   <v>      -0.25641026       0.20512821       0.05128205 </v>
   <v>      -0.23076923       0.20512821       0.05128205 </v>
   <v>      -0.20512821       0.20512821       0.05128205 </v>
   <v>      -0.17948718       0.20512821       0.05128205 </v>
   <v>      -0.15384615       0.20512821       0.05128205 </v>
   <v>       0.28205128       0.23076923       0.05128205 </v>
   <v>       0.30769231       0.23076923       0.05128205 </v>
   <v>       0.33333333       0.23076923       0.05128205 </v>
   <v>       0.35897436       0.23076923       0.05128205 </v>
   <v>       0.38461538       0.23076923       0.05128205 </v>
   <v>       0.41025641       0.23076923       0.05128205 </v>
   <v>       0.43589744       0.23076923       0.05128205 </v>
   <v>       0.46153846       0.23076923       0.05128205 </v>
   <v>       0.48717949       0.23076923       0.05128205 </v>
   <v>      -0.48717949       0.23076923       0.05128205 </v>
   <v>      -0.46153846       0.23076923       0.05128205 </v>
   <v>      -0.43589744       0.23076923       0.05128205 </v>
   <v>      -0.41025641       0.23076923       0.05128205 </v>
   <v>      -0.38461538       0.23076923       0.05128205 </v>
   <v>      -0.35897436       0.23076923       0.05128205 </v>
   <v>      -0.33333333       0.23076923       0.05128205 </v>
   <v>      -0.30769231       0.23076923       0.05128205 </v>
   <v>      -0.28205128       0.23076923       0.05128205 </v>
   <v>      -0.25641026       0.23076923       0.05128205 </v>
   <v>      -0.23076923       0.23076923       0.05128205 </v>
   <v>      -0.20512821       0.23076923       0.05128205 </v>
   <v>      -0.17948718       0.23076923       0.05128205 </v>
   <v>       0.30769231       0.25641026       0.05128205 </v>
   <v>       0.33333333       0.25641026       0.05128205 </v>
   <v>       0.35897436       0.25641026       0.05128205 </v>
   <v>       0.38461538       0.25641026       0.05128205 </v>
   <v>       0.41025641       0.25641026       0.05128205 </v>
   <v>       0.43589744       0.25641026       0.05128205 </v>
   <v>       0.46153846       0.25641026       0.05128205 </v>
   <v>       0.48717949       0.25641026       0.05128205 </v>
   <v>      -0.48717949       0.25641026       0.05128205 </v>
   <v>      -0.46153846       0.25641026       0.05128205 </v>
   <v>      -0.43589744       0.25641026       0.05128205 </v>
   <v>      -0.41025641       0.25641026       0.05128205 </v>
   <v>      -0.38461538       0.25641026       0.05128205 </v>
   <v>      -0.35897436       0.25641026       0.05128205 </v>
   <v>      -0.33333333       0.25641026       0.05128205 </v>
   <v>      -0.30769231       0.25641026       0.05128205 </v>
   <v>      -0.28205128       0.25641026       0.05128205 </v>
   <v>      -0.25641026       0.25641026       0.05128205 </v>
   <v>      -0.23076923       0.25641026       0.05128205 </v>
   <v>      -0.20512821       0.25641026       0.05128205 </v>
   <v>       0.33333333       0.28205128       0.05128205 </v>
   <v>       0.35897436       0.28205128       0.05128205 </v>
   <v>       0.38461538       0.28205128       0.05128205 </v>
   <v>       0.41025641       0.28205128       0.05128205 </v>
   <v>       0.43589744       0.28205128       0.05128205 </v>
   <v>       0.46153846       0.28205128       0.05128205 </v>
   <v>       0.48717949       0.28205128       0.05128205 </v>
   <v>      -0.48717949       0.28205128       0.05128205 </v>
   <v>      -0.46153846       0.28205128       0.05128205 </v>
   <v>      -0.43589744       0.28205128       0.05128205 </v>
   <v>      -0.41025641       0.28205128       0.05128205 </v>
   <v>      -0.38461538       0.28205128       0.05128205 </v>
   <v>      -0.35897436       0.28205128       0.05128205 </v>
   <v>      -0.33333333       0.28205128       0.05128205 </v>
   <v>      -0.30769231       0.28205128       0.05128205 </v>
   <v>      -0.28205128       0.28205128       0.05128205 </v>
   <v>      -0.25641026       0.28205128       0.05128205 </v>
   <v>      -0.23076923       0.28205128       0.05128205 </v>
   <v>       0.35897436       0.30769231       0.05128205 </v>
   <v>       0.38461538       0.30769231       0.05128205 </v>
   <v>       0.41025641       0.30769231       0.05128205 </v>
   <v>       0.43589744       0.30769231       0.05128205 </v>
   <v>       0.46153846       0.30769231       0.05128205 </v>
   <v>       0.48717949       0.30769231       0.05128205 </v>
   <v>      -0.48717949       0.30769231       0.05128205 </v>
   <v>      -0.46153846       0.30769231       0.05128205 </v>
   <v>      -0.43589744       0.30769231       0.05128205 </v>
   <v>      -0.41025641       0.30769231       0.05128205 </v>
   <v>      -0.38461538       0.30769231       0.05128205 </v>
   <v>      -0.35897436       0.30769231       0.05128205 </v>
   <v>      -0.33333333       0.30769231       0.05128205 </v>
   <v>      -0.30769231       0.30769231       0.05128205 </v>
   <v>      -0.28205128       0.30769231       0.05128205 </v>
   <v>      -0.25641026       0.30769231       0.05128205 </v>
   <v>       0.38461538       0.33333333       0.05128205 </v>
   <v>       0.41025641       0.33333333       0.05128205 </v>
   <v>       0.43589744       0.33333333       0.05128205 </v>
   <v>       0.46153846       0.33333333       0.05128205 </v>
   <v>       0.48717949       0.33333333       0.05128205 </v>
   <v>      -0.48717949       0.33333333       0.05128205 </v>
   <v>      -0.46153846       0.33333333       0.05128205 </v>
   <v>      -0.43589744       0.33333333       0.05128205 </v>
   <v>      -0.41025641       0.33333333       0.05128205 </v>
   <v>      -0.38461538       0.33333333       0.05128205 </v>
   <v>      -0.35897436       0.33333333       0.05128205 </v>
   <v>      -0.33333333       0.33333333       0.05128205 </v>
   <v>      -0.30769231       0.33333333       0.05128205 </v>
   <v>      -0.28205128       0.33333333       0.05128205 </v>
   <v>       0.41025641       0.35897436       0.05128205 </v>
   <v>       0.43589744       0.35897436       0.05128205 </v>
   <v>       0.46153846       0.35897436       0.05128205 </v>
   <v>       0.48717949       0.35897436       0.05128205 </v>
   <v>      -0.48717949       0.35897436       0.05128205 </v>
   <v>      -0.46153846       0.35897436       0.05128205 </v>
   <v>      -0.43589744       0.35897436       0.05128205 </v>
   <v>      -0.41025641       0.35897436       0.05128205 </v>
   <v>      -0.38461538       0.35897436       0.05128205 </v>
   <v>      -0.35897436       0.35897436       0.05128205 </v>
   <v>      -0.33333333       0.35897436       0.05128205 </v>
   <v>      -0.30769231       0.35897436       0.05128205 </v>
   <v>       0.43589744       0.38461538       0.05128205 </v>
   <v>       0.46153846       0.38461538       0.05128205 </v>
   <v>       0.48717949       0.38461538       0.05128205 </v>
   <v>      -0.48717949       0.38461538       0.05128205 </v>
   <v>      -0.46153846       0.38461538       0.05128205 </v>
   <v>      -0.43589744       0.38461538       0.05128205 </v>
   <v>      -0.41025641       0.38461538       0.05128205 </v>
   <v>      -0.38461538       0.38461538       0.05128205 </v>
   <v>      -0.35897436       0.38461538       0.05128205 </v>
   <v>      -0.33333333       0.38461538       0.05128205 </v>
   <v>       0.46153846       0.41025641       0.05128205 </v>
   <v>       0.48717949       0.41025641       0.05128205 </v>
   <v>      -0.48717949       0.41025641       0.05128205 </v>
   <v>      -0.46153846       0.41025641       0.05128205 </v>
   <v>      -0.43589744       0.41025641       0.05128205 </v>
   <v>      -0.41025641       0.41025641       0.05128205 </v>
   <v>      -0.38461538       0.41025641       0.05128205 </v>
   <v>      -0.35897436       0.41025641       0.05128205 </v>
   <v>       0.48717949       0.43589744       0.05128205 </v>
   <v>      -0.48717949       0.43589744       0.05128205 </v>
   <v>      -0.46153846       0.43589744       0.05128205 </v>
   <v>      -0.43589744       0.43589744       0.05128205 </v>
   <v>      -0.41025641       0.43589744       0.05128205 </v>
   <v>      -0.38461538       0.43589744       0.05128205 </v>
   <v>      -0.48717949       0.46153846       0.05128205 </v>
   <v>      -0.46153846       0.46153846       0.05128205 </v>
   <v>      -0.43589744       0.46153846       0.05128205 </v>
   <v>      -0.41025641       0.46153846       0.05128205 </v>
   <v>      -0.46153846       0.48717949       0.05128205 </v>
   <v>      -0.43589744       0.48717949       0.05128205 </v>
   <v>       0.23076923       0.15384615       0.07692308 </v>
   <v>       0.25641026       0.15384615       0.07692308 </v>
   <v>       0.28205128       0.15384615       0.07692308 </v>
   <v>       0.30769231       0.15384615       0.07692308 </v>
   <v>       0.33333333       0.15384615       0.07692308 </v>
   <v>       0.35897436       0.15384615       0.07692308 </v>
   <v>       0.38461538       0.15384615       0.07692308 </v>
   <v>       0.41025641       0.15384615       0.07692308 </v>
   <v>       0.43589744       0.15384615       0.07692308 </v>
   <v>       0.46153846       0.15384615       0.07692308 </v>
   <v>       0.48717949       0.15384615       0.07692308 </v>
   <v>      -0.48717949       0.15384615       0.07692308 </v>
   <v>      -0.46153846       0.15384615       0.07692308 </v>
   <v>      -0.43589744       0.15384615       0.07692308 </v>
   <v>       0.25641026       0.17948718       0.07692308 </v>
   <v>       0.28205128       0.17948718       0.07692308 </v>
   <v>       0.30769231       0.17948718       0.07692308 </v>
   <v>       0.33333333       0.17948718       0.07692308 </v>
   <v>       0.35897436       0.17948718       0.07692308 </v>
   <v>       0.38461538       0.17948718       0.07692308 </v>
   <v>       0.41025641       0.17948718       0.07692308 </v>
   <v>       0.43589744       0.17948718       0.07692308 </v>
   <v>       0.46153846       0.17948718       0.07692308 </v>
   <v>       0.48717949       0.17948718       0.07692308 </v>
   <v>      -0.48717949       0.17948718       0.07692308 </v>
   <v>      -0.46153846       0.17948718       0.07692308 </v>
   <v>      -0.43589744       0.17948718       0.07692308 </v>
   <v>      -0.41025641       0.17948718       0.07692308 </v>
   <v>      -0.38461538       0.17948718       0.07692308 </v>
   <v>      -0.35897436       0.17948718       0.07692308 </v>
   <v>      -0.33333333       0.17948718       0.07692308 </v>
   <v>      -0.30769231       0.17948718       0.07692308 </v>
   <v>      -0.28205128       0.17948718       0.07692308 </v>
   <v>      -0.25641026       0.17948718       0.07692308 </v>
   <v>      -0.23076923       0.17948718       0.07692308 </v>
   <v>      -0.20512821       0.17948718       0.07692308 </v>
   <v>      -0.17948718       0.17948718       0.07692308 </v>
   <v>      -0.15384615       0.17948718       0.07692308 </v>
   <v>      -0.12820513       0.17948718       0.07692308 </v>
   <v>      -0.10256410       0.17948718       0.07692308 </v>
   <v>       0.28205128       0.20512821       0.07692308 </v>
   <v>       0.30769231       0.20512821       0.07692308 </v>
   <v>       0.33333333       0.20512821       0.07692308 </v>
   <v>       0.35897436       0.20512821       0.07692308 </v>
   <v>       0.38461538       0.20512821       0.07692308 </v>
   <v>       0.41025641       0.20512821       0.07692308 </v>
   <v>       0.43589744       0.20512821       0.07692308 </v>
   <v>       0.46153846       0.20512821       0.07692308 </v>
   <v>       0.48717949       0.20512821       0.07692308 </v>
   <v>      -0.48717949       0.20512821       0.07692308 </v>
   <v>      -0.46153846       0.20512821       0.07692308 </v>
   <v>      -0.43589744       0.20512821       0.07692308 </v>
   <v>      -0.41025641       0.20512821       0.07692308 </v>
   <v>      -0.38461538       0.20512821       0.07692308 </v>
   <v>      -0.35897436       0.20512821       0.07692308 </v>
   <v>      -0.33333333       0.20512821       0.07692308 </v>
   <v>      -0.30769231       0.20512821       0.07692308 </v>
   <v>      -0.28205128       0.20512821       0.07692308 </v>
   <v>      -0.25641026       0.20512821       0.07692308 </v>
   <v>      -0.23076923       0.20512821       0.07692308 </v>
   <v>      -0.20512821       0.20512821       0.07692308 </v>
   <v>      -0.17948718       0.20512821       0.07692308 </v>
   <v>      -0.15384615       0.20512821       0.07692308 </v>
   <v>      -0.12820513       0.20512821       0.07692308 </v>
   <v>       0.30769231       0.23076923       0.07692308 </v>
   <v>       0.33333333       0.23076923       0.07692308 </v>
   <v>       0.35897436       0.23076923       0.07692308 </v>
   <v>       0.38461538       0.23076923       0.07692308 </v>
   <v>       0.41025641       0.23076923       0.07692308 </v>
   <v>       0.43589744       0.23076923       0.07692308 </v>
   <v>       0.46153846       0.23076923       0.07692308 </v>
   <v>       0.48717949       0.23076923       0.07692308 </v>
   <v>      -0.48717949       0.23076923       0.07692308 </v>
   <v>      -0.46153846       0.23076923       0.07692308 </v>
   <v>      -0.43589744       0.23076923       0.07692308 </v>
   <v>      -0.41025641       0.23076923       0.07692308 </v>
   <v>      -0.38461538       0.23076923       0.07692308 </v>
   <v>      -0.35897436       0.23076923       0.07692308 </v>
   <v>      -0.33333333       0.23076923       0.07692308 </v>
   <v>      -0.30769231       0.23076923       0.07692308 </v>
   <v>      -0.28205128       0.23076923       0.07692308 </v>
   <v>      -0.25641026       0.23076923       0.07692308 </v>
   <v>      -0.23076923       0.23076923       0.07692308 </v>
   <v>      -0.20512821       0.23076923       0.07692308 </v>
   <v>      -0.17948718       0.23076923       0.07692308 </v>
   <v>      -0.15384615       0.23076923       0.07692308 </v>
   <v>       0.33333333       0.25641026       0.07692308 </v>
   <v>       0.35897436       0.25641026       0.07692308 </v>
   <v>       0.38461538       0.25641026       0.07692308 </v>
   <v>       0.41025641       0.25641026       0.07692308 </v>
   <v>       0.43589744       0.25641026       0.07692308 </v>
   <v>       0.46153846       0.25641026       0.07692308 </v>
   <v>       0.48717949       0.25641026       0.07692308 </v>
   <v>      -0.48717949       0.25641026       0.07692308 </v>
   <v>      -0.46153846       0.25641026       0.07692308 </v>
   <v>      -0.43589744       0.25641026       0.07692308 </v>
   <v>      -0.41025641       0.25641026       0.07692308 </v>
   <v>      -0.38461538       0.25641026       0.07692308 </v>
   <v>      -0.35897436       0.25641026       0.07692308 </v>
   <v>      -0.33333333       0.25641026       0.07692308 </v>
   <v>      -0.30769231       0.25641026       0.07692308 </v>
   <v>      -0.28205128       0.25641026       0.07692308 </v>
   <v>      -0.25641026       0.25641026       0.07692308 </v>
   <v>      -0.23076923       0.25641026       0.07692308 </v>
   <v>      -0.20512821       0.25641026       0.07692308 </v>
   <v>      -0.17948718       0.25641026       0.07692308 </v>
   <v>       0.35897436       0.28205128       0.07692308 </v>
   <v>       0.38461538       0.28205128       0.07692308 </v>
   <v>       0.41025641       0.28205128       0.07692308 </v>
   <v>       0.43589744       0.28205128       0.07692308 </v>
   <v>       0.46153846       0.28205128       0.07692308 </v>
   <v>       0.48717949       0.28205128       0.07692308 </v>
   <v>      -0.48717949       0.28205128       0.07692308 </v>
   <v>      -0.46153846       0.28205128       0.07692308 </v>
   <v>      -0.43589744       0.28205128       0.07692308 </v>
   <v>      -0.41025641       0.28205128       0.07692308 </v>
   <v>      -0.38461538       0.28205128       0.07692308 </v>
   <v>      -0.35897436       0.28205128       0.07692308 </v>
   <v>      -0.33333333       0.28205128       0.07692308 </v>
   <v>      -0.30769231       0.28205128       0.07692308 </v>
   <v>      -0.28205128       0.28205128       0.07692308 </v>
   <v>      -0.25641026       0.28205128       0.07692308 </v>
   <v>      -0.23076923       0.28205128       0.07692308 </v>
   <v>      -0.20512821       0.28205128       0.07692308 </v>
   <v>       0.38461538       0.30769231       0.07692308 </v>
   <v>       0.41025641       0.30769231       0.07692308 </v>
   <v>       0.43589744       0.30769231       0.07692308 </v>
   <v>       0.46153846       0.30769231       0.07692308 </v>
   <v>       0.48717949       0.30769231       0.07692308 </v>
   <v>      -0.48717949       0.30769231       0.07692308 </v>
   <v>      -0.46153846       0.30769231       0.07692308 </v>
   <v>      -0.43589744       0.30769231       0.07692308 </v>
   <v>      -0.41025641       0.30769231       0.07692308 </v>
   <v>      -0.38461538       0.30769231       0.07692308 </v>
   <v>      -0.35897436       0.30769231       0.07692308 </v>
   <v>      -0.33333333       0.30769231       0.07692308 </v>
   <v>      -0.30769231       0.30769231       0.07692308 </v>
   <v>      -0.28205128       0.30769231       0.07692308 </v>
   <v>      -0.25641026       0.30769231       0.07692308 </v>
   <v>      -0.23076923       0.30769231       0.07692308 </v>
   <v>       0.41025641       0.33333333       0.07692308 </v>
   <v>       0.43589744       0.33333333       0.07692308 </v>
   <v>       0.46153846       0.33333333       0.07692308 </v>
   <v>       0.48717949       0.33333333       0.07692308 </v>
   <v>      -0.48717949       0.33333333       0.07692308 </v>
   <v>      -0.46153846       0.33333333       0.07692308 </v>
   <v>      -0.43589744       0.33333333       0.07692308 </v>
   <v>      -0.41025641       0.33333333       0.07692308 </v>
   <v>      -0.38461538       0.33333333       0.07692308 </v>
   <v>      -0.35897436       0.33333333       0.07692308 </v>
   <v>      -0.33333333       0.33333333       0.07692308 </v>
   <v>      -0.30769231       0.33333333       0.07692308 </v>
   <v>      -0.28205128       0.33333333       0.07692308 </v>
   <v>      -0.25641026       0.33333333       0.07692308 </v>
   <v>       0.43589744       0.35897436       0.07692308 </v>
   <v>       0.46153846       0.35897436       0.07692308 </v>
   <v>       0.48717949       0.35897436       0.07692308 </v>
   <v>      -0.48717949       0.35897436       0.07692308 </v>
   <v>      -0.46153846       0.35897436       0.07692308 </v>
   <v>      -0.43589744       0.35897436       0.07692308 </v>
   <v>      -0.41025641       0.35897436       0.07692308 </v>
   <v>      -0.38461538       0.35897436       0.07692308 </v>
   <v>      -0.35897436       0.35897436       0.07692308 </v>
   <v>      -0.33333333       0.35897436       0.07692308 </v>
   <v>      -0.30769231       0.35897436       0.07692308 </v>
   <v>      -0.28205128       0.35897436       0.07692308 </v>
   <v>       0.46153846       0.38461538       0.07692308 </v>
   <v>       0.48717949       0.38461538       0.07692308 </v>
   <v>      -0.48717949       0.38461538       0.07692308 </v>
   <v>      -0.46153846       0.38461538       0.07692308 </v>
   <v>      -0.43589744       0.38461538       0.07692308 </v>
   <v>      -0.41025641       0.38461538       0.07692308 </v>
   <v>      -0.38461538       0.38461538       0.07692308 </v>
   <v>      -0.35897436       0.38461538       0.07692308 </v>
   <v>      -0.33333333       0.38461538       0.07692308 </v>
   <v>      -0.30769231       0.38461538       0.07692308 </v>
   <v>       0.48717949       0.41025641       0.07692308 </v>
   <v>      -0.48717949       0.41025641       0.07692308 </v>
   <v>      -0.46153846       0.41025641       0.07692308 </v>
   <v>      -0.43589744       0.41025641       0.07692308 </v>
   <v>      -0.41025641       0.41025641       0.07692308 </v>
   <v>      -0.38461538       0.41025641       0.07692308 </v>
   <v>      -0.35897436       0.41025641       0.07692308 </v>
   <v>      -0.33333333       0.41025641       0.07692308 </v>
   <v>      -0.48717949       0.43589744       0.07692308 </v>
   <v>      -0.46153846       0.43589744       0.07692308 </v>
   <v>      -0.43589744       0.43589744       0.07692308 </v>
   <v>      -0.41025641       0.43589744       0.07692308 </v>
   <v>      -0.38461538       0.43589744       0.07692308 </v>
   <v>      -0.35897436       0.43589744       0.07692308 </v>
   <v>      -0.46153846       0.46153846       0.07692308 </v>
   <v>      -0.43589744       0.46153846       0.07692308 </v>
   <v>      -0.41025641       0.46153846       0.07692308 </v>
   <v>      -0.38461538       0.46153846       0.07692308 </v>
   <v>      -0.43589744       0.48717949       0.07692308 </v>
   <v>      -0.41025641       0.48717949       0.07692308 </v>
   <v>       0.30769231       0.20512821       0.10256410 </v>
   <v>       0.33333333       0.20512821       0.10256410 </v>
   <v>       0.35897436       0.20512821       0.10256410 </v>
   <v>       0.38461538       0.20512821       0.10256410 </v>
   <v>       0.41025641       0.20512821       0.10256410 </v>
   <v>       0.43589744       0.20512821       0.10256410 </v>
   <v>       0.46153846       0.20512821       0.10256410 </v>
   <v>       0.48717949       0.20512821       0.10256410 </v>
   <v>      -0.48717949       0.20512821       0.10256410 </v>
   <v>      -0.46153846       0.20512821       0.10256410 </v>
   <v>      -0.43589744       0.20512821       0.10256410 </v>
   <v>      -0.41025641       0.20512821       0.10256410 </v>
   <v>       0.33333333       0.23076923       0.10256410 </v>
   <v>       0.35897436       0.23076923       0.10256410 </v>
   <v>       0.38461538       0.23076923       0.10256410 </v>
   <v>       0.41025641       0.23076923       0.10256410 </v>
   <v>       0.43589744       0.23076923       0.10256410 </v>
   <v>       0.46153846       0.23076923       0.10256410 </v>
   <v>       0.48717949       0.23076923       0.10256410 </v>
   <v>      -0.48717949       0.23076923       0.10256410 </v>
   <v>      -0.46153846       0.23076923       0.10256410 </v>
   <v>      -0.43589744       0.23076923       0.10256410 </v>
   <v>      -0.41025641       0.23076923       0.10256410 </v>
   <v>      -0.38461538       0.23076923       0.10256410 </v>
   <v>      -0.35897436       0.23076923       0.10256410 </v>
   <v>      -0.33333333       0.23076923       0.10256410 </v>
   <v>      -0.30769231       0.23076923       0.10256410 </v>
   <v>      -0.28205128       0.23076923       0.10256410 </v>
   <v>      -0.25641026       0.23076923       0.10256410 </v>
   <v>      -0.23076923       0.23076923       0.10256410 </v>
   <v>      -0.20512821       0.23076923       0.10256410 </v>
   <v>      -0.17948718       0.23076923       0.10256410 </v>
   <v>      -0.15384615       0.23076923       0.10256410 </v>
   <v>      -0.12820513       0.23076923       0.10256410 </v>
   <v>       0.35897436       0.25641026       0.10256410 </v>
   <v>       0.38461538       0.25641026       0.10256410 </v>
   <v>       0.41025641       0.25641026       0.10256410 </v>
   <v>       0.43589744       0.25641026       0.10256410 </v>
   <v>       0.46153846       0.25641026       0.10256410 </v>
   <v>       0.48717949       0.25641026       0.10256410 </v>
   <v>      -0.48717949       0.25641026       0.10256410 </v>
   <v>      -0.46153846       0.25641026       0.10256410 </v>
   <v>      -0.43589744       0.25641026       0.10256410 </v>
   <v>      -0.41025641       0.25641026       0.10256410 </v>
   <v>      -0.38461538       0.25641026       0.10256410 </v>
   <v>      -0.35897436       0.25641026       0.10256410 </v>
   <v>      -0.33333333       0.25641026       0.10256410 </v>
[...]
       <r>    26.6020     1.8342    41.0599 </r>
       <r>    26.6262     1.8281    41.1042 </r>
       <r>    26.6504     1.7914    41.1475 </r>
       <r>    26.6746     1.7499    41.1898 </r>
       <r>    26.6988     1.7605    41.2324 </r>
       <r>    26.7230     1.8264    41.2766 </r>
       <r>    26.7472     1.8874    41.3223 </r>
       <r>    26.7714     1.8924    41.3681 </r>
       <r>    26.7955     1.8452    41.4127 </r>
       <r>    26.8197     1.7725    41.4556 </r>
       <r>    26.8439     1.7070    41.4969 </r>
       <r>    26.8681     1.6981    41.5380 </r>
       <r>    26.8923     1.7544    41.5804 </r>
       <r>    26.9165     1.8218    41.6245 </r>
       <r>    26.9407     1.8456    41.6691 </r>
       <r>    26.9649     1.8086    41.7129 </r>
       <r>    26.9891     1.7352    41.7548 </r>
       <r>    27.0133     1.6870    41.7957 </r>
       <r>    27.0375     1.7245    41.8374 </r>
       <r>    27.0617     1.8320    41.8817 </r>
       <r>    27.0859     1.9170    41.9281 </r>
       <r>    27.1100     1.9362    41.9749 </r>
       <r>    27.1342     1.9431    42.0219 </r>
       <r>    27.1584     1.9586    42.0693 </r>
       <r>    27.1826     1.9284    42.1160 </r>
       <r>    27.2068     1.8419    42.1605 </r>
       <r>    27.2310     1.7603    42.2031 </r>
       <r>    27.2552     1.7206    42.2447 </r>
       <r>    27.2794     1.7027    42.2859 </r>
       <r>    27.3036     1.6736    42.3264 </r>
       <r>    27.3278     1.6338    42.3659 </r>
       <r>    27.3520     1.6198    42.4051 </r>
       <r>    27.3762     1.6556    42.4452 </r>
       <r>    27.4004     1.7294    42.4870 </r>
       <r>    27.4245     1.8180    42.5310 </r>
       <r>    27.4487     1.8944    42.5768 </r>
       <r>    27.4729     1.9433    42.6238 </r>
       <r>    27.4971     1.9758    42.6716 </r>
       <r>    27.5213     1.9850    42.7197 </r>
       <r>    27.5455     1.9488    42.7668 </r>
       <r>    27.5697     1.8808    42.8123 </r>
       <r>    27.5939     1.8131    42.8562 </r>
       <r>    27.6181     1.7574    42.8987 </r>
       <r>    27.6423     1.7278    42.9405 </r>
       <r>    27.6665     1.7697    42.9833 </r>
       <r>    27.6907     1.8760    43.0287 </r>
       <r>    27.7149     1.9450    43.0757 </r>
       <r>    27.7390     1.9339    43.1225 </r>
       <r>    27.7632     1.9235    43.1691 </r>
       <r>    27.7874     1.9595    43.2165 </r>
       <r>    27.8116     1.9801    43.2644 </r>
       <r>    27.8358     1.9456    43.3114 </r>
       <r>    27.8600     1.9052    43.3575 </r>
       <r>    27.8842     1.8989    43.4035 </r>
       <r>    27.9084     1.9008    43.4494 </r>
       <r>    27.9326     1.8736    43.4948 </r>
       <r>    27.9568     1.8167    43.5387 </r>
       <r>    27.9810     1.7697    43.5815 </r>
       <r>    28.0052     1.7776    43.6245 </r>
       <r>    28.0294     1.8366    43.6690 </r>
       <r>    28.0535     1.8999    43.7149 </r>
       <r>    28.0777     1.9477    43.7621 </r>
       <r>    28.1019     2.0030    43.8105 </r>
       <r>    28.1261     2.0675    43.8605 </r>
       <r>    28.1503     2.0949    43.9112 </r>
       <r>    28.1745     2.0583    43.9610 </r>
       <r>    28.1987     1.9932    44.0092 </r>
       <r>    28.2229     1.9460    44.0563 </r>
       <r>    28.2471     1.9269    44.1029 </r>
       <r>    28.2713     1.9001    44.1489 </r>
       <r>    28.2955     1.8240    44.1930 </r>
       <r>    28.3197     1.7593    44.2356 </r>
       <r>    28.3439     1.8318    44.2799 </r>
       <r>    28.3680     2.0338    44.3291 </r>
       <r>    28.3922     2.2200    44.3828 </r>
       <r>    28.4164     2.3130    44.4388 </r>
       <r>    28.4406     2.3359    44.4953 </r>
       <r>    28.4648     2.2902    44.5507 </r>
       <r>    28.4890     2.1876    44.6036 </r>
       <r>    28.5132     2.1069    44.6546 </r>
       <r>    28.5374     2.0967    44.7053 </r>
       <r>    28.5616     2.1190    44.7566 </r>
       <r>    28.5858     2.1168    44.8078 </r>
       <r>    28.6100     2.0787    44.8581 </r>
       <r>    28.6342     2.0309    44.9072 </r>
       <r>    28.6584     1.9981    44.9555 </r>
       <r>    28.6825     1.9827    45.0035 </r>
       <r>    28.7067     1.9667    45.0511 </r>
       <r>    28.7309     1.9409    45.0980 </r>
       <r>    28.7551     1.9179    45.1444 </r>
       <r>    28.7793     1.8998    45.1904 </r>
       <r>    28.8035     1.8627    45.2354 </r>
       <r>    28.8277     1.8004    45.2790 </r>
       <r>    28.8519     1.7485    45.3213 </r>
       <r>    28.8761     1.7393    45.3634 </r>
       <r>    28.9003     1.7481    45.4057 </r>
       <r>    28.9245     1.7139    45.4471 </r>
       <r>    28.9487     1.6284    45.4865 </r>
       <r>    28.9729     1.5503    45.5240 </r>
       <r>    28.9970     1.5195    45.5608 </r>
       <r>    29.0212     1.5363    45.5980 </r>
       <r>    29.0454     1.5995    45.6367 </r>
       <r>    29.0696     1.6768    45.6772 </r>
       <r>    29.0938     1.7215    45.7189 </r>
       <r>    29.1180     1.7479    45.7612 </r>
       <r>    29.1422     1.7802    45.8042 </r>
       <r>    29.1664     1.7886    45.8475 </r>
       <r>    29.1906     1.7499    45.8898 </r>
       <r>    29.2148     1.6809    45.9305 </r>
       <r>    29.2390     1.6108    45.9695 </r>
       <r>    29.2632     1.5736    46.0075 </r>
       <r>    29.2874     1.5815    46.0458 </r>
       <r>    29.3115     1.5983    46.0845 </r>
       <r>    29.3357     1.5961    46.1231 </r>
       <r>    29.3599     1.5962    46.1617 </r>
       <r>    29.3841     1.6079    46.2006 </r>
       <r>    29.4083     1.5913    46.2391 </r>
       <r>    29.4325     1.5224    46.2759 </r>
       <r>    29.4567     1.4384    46.3107 </r>
       <r>    29.4809     1.3778    46.3440 </r>
       <r>    29.5051     1.3311    46.3762 </r>
       <r>    29.5293     1.2733    46.4071 </r>
       <r>    29.5535     1.2163    46.4365 </r>
       <r>    29.5777     1.1872    46.4652 </r>
       <r>    29.6019     1.1772    46.4937 </r>
       <r>    29.6260     1.1756    46.5221 </r>
       <r>    29.6502     1.1854    46.5508 </r>
       <r>    29.6744     1.1802    46.5793 </r>
       <r>    29.6986     1.1509    46.6072 </r>
       <r>    29.7228     1.1375    46.6347 </r>
       <r>    29.7470     1.1488    46.6625 </r>
       <r>    29.7712     1.1486    46.6903 </r>
       <r>    29.7954     1.1165    46.7173 </r>
       <r>    29.8196     1.0576    46.7429 </r>
       <r>    29.8438     1.0007    46.7671 </r>
       <r>    29.8680     0.9758    46.7907 </r>
       <r>    29.8922     0.9600    46.8139 </r>
       <r>    29.9164     0.9180    46.8361 </r>
       <r>    29.9405     0.8676    46.8571 </r>
       <r>    29.9647     0.8453    46.8776 </r>
       <r>    29.9889     0.8634    46.8985 </r>
       <r>    30.0131     0.9064    46.9204 </r>
       <r>    30.0373     0.9369    46.9431 </r>
       <r>    30.0615     0.9256    46.9654 </r>
       <r>    30.0857     0.8759    46.9866 </r>
       <r>    30.1099     0.8092    47.0062 </r>
       <r>    30.1341     0.7341    47.0240 </r>
       <r>    30.1583     0.6542    47.0398 </r>
       <r>    30.1825     0.5931    47.0542 </r>
       <r>    30.2067     0.5761    47.0681 </r>
       <r>    30.2309     0.6031    47.0827 </r>
       <r>    30.2550     0.6484    47.0984 </r>
       <r>    30.2792     0.6748    47.1147 </r>
       <r>    30.3034     0.6652    47.1308 </r>
       <r>    30.3276     0.6426    47.1463 </r>
       <r>    30.3518     0.6347    47.1617 </r>
       <r>    30.3760     0.6398    47.1772 </r>
       <r>    30.4002     0.6416    47.1927 </r>
       <r>    30.4244     0.6291    47.2079 </r>
       <r>    30.4486     0.6081    47.2226 </r>
       <r>    30.4728     0.5917    47.2369 </r>
       <r>    30.4970     0.5807    47.2510 </r>
       <r>    30.5212     0.5714    47.2648 </r>
       <r>    30.5454     0.5667    47.2785 </r>
       <r>    30.5695     0.5656    47.2922 </r>
       <r>    30.5937     0.5713    47.3060 </r>
       <r>    30.6179     0.5871    47.3202 </r>
       <r>    30.6421     0.5991    47.3347 </r>
       <r>    30.6663     0.6070    47.3494 </r>
       <r>    30.6905     0.6255    47.3645 </r>
       <r>    30.7147     0.6345    47.3799 </r>
       <r>    30.7389     0.6007    47.3944 </r>
       <r>    30.7631     0.5412    47.4075 </r>
       <r>    30.7873     0.4994    47.4196 </r>
       <r>    30.8115     0.4872    47.4314 </r>
       <r>    30.8357     0.4838    47.4431 </r>
       <r>    30.8599     0.4642    47.4543 </r>
       <r>    30.8840     0.4323    47.4648 </r>
       <r>    30.9082     0.4195    47.4749 </r>
       <r>    30.9324     0.4395    47.4855 </r>
       <r>    30.9566     0.4710    47.4969 </r>
       <r>    30.9808     0.4885    47.5088 </r>
       <r>    31.0050     0.4825    47.5204 </r>
       <r>    31.0292     0.4582    47.5315 </r>
       <r>    31.0534     0.4349    47.5420 </r>
       <r>    31.0776     0.4377    47.5526 </r>
       <r>    31.1018     0.4646    47.5639 </r>
       <r>    31.1260     0.4864    47.5756 </r>
       <r>    31.1502     0.4935    47.5876 </r>
       <r>    31.1744     0.4915    47.5995 </r>
       <r>    31.1985     0.4690    47.6108 </r>
       <r>    31.2227     0.4260    47.6211 </r>
       <r>    31.2469     0.3960    47.6307 </r>
       <r>    31.2711     0.3990    47.6403 </r>
       <r>    31.2953     0.4148    47.6504 </r>
       <r>    31.3195     0.4230    47.6606 </r>
       <r>    31.3437     0.4207    47.6708 </r>
       <r>    31.3679     0.4067    47.6806 </r>
       <r>    31.3921     0.3869    47.6900 </r>
       <r>    31.4163     0.3671    47.6989 </r>
       <r>    31.4405     0.3444    47.7072 </r>
       <r>    31.4647     0.3235    47.7150 </r>
       <r>    31.4889     0.3147    47.7226 </r>
       <r>    31.5130     0.3193    47.7304 </r>
       <r>    31.5372     0.3310    47.7384 </r>
       <r>    31.5614     0.3366    47.7465 </r>
       <r>    31.5856     0.3257    47.7544 </r>
       <r>    31.6098     0.3056    47.7618 </r>
       <r>    31.6340     0.2872    47.7687 </r>
       <r>    31.6582     0.2751    47.7754 </r>
       <r>    31.6824     0.2832    47.7822 </r>
       <r>    31.7066     0.3217    47.7900 </r>
       <r>    31.7308     0.3676    47.7989 </r>
       <r>    31.7550     0.3888    47.8083 </r>
       <r>    31.7792     0.3807    47.8175 </r>
       <r>    31.8034     0.3535    47.8261 </r>
       <r>    31.8275     0.3145    47.8337 </r>
       <r>    31.8517     0.2713    47.8403 </r>
       <r>    31.8759     0.2311    47.8458 </r>
       <r>    31.9001     0.1980    47.8506 </r>
       <r>    31.9243     0.1742    47.8549 </r>
       <r>    31.9485     0.1600    47.8587 </r>
       <r>    31.9727     0.1575    47.8625 </r>
       <r>    31.9969     0.1704    47.8667 </r>
       <r>    32.0211     0.1889    47.8712 </r>
       <r>    32.0453     0.1931    47.8759 </r>
       <r>    32.0695     0.1845    47.8804 </r>
       <r>    32.0937     0.1852    47.8848 </r>
       <r>    32.1179     0.2026    47.8897 </r>
       <r>    32.1420     0.2231    47.8951 </r>
       <r>    32.1662     0.2324    47.9008 </r>
       <r>    32.1904     0.2273    47.9063 </r>
       <r>    32.2146     0.2125    47.9114 </r>
       <r>    32.2388     0.1938    47.9161 </r>
       <r>    32.2630     0.1793    47.9204 </r>
       <r>    32.2872     0.1745    47.9247 </r>
       <r>    32.3114     0.1723    47.9288 </r>
       <r>    32.3356     0.1694    47.9329 </r>
       <r>    32.3598     0.1782    47.9372 </r>
       <r>    32.3840     0.1938    47.9419 </r>
       <r>    32.4082     0.1912    47.9465 </r>
       <r>    32.4324     0.1715    47.9507 </r>
       <r>    32.4565     0.1564    47.9545 </r>
       <r>    32.4807     0.1498    47.9581 </r>
       <r>    32.5049     0.1441    47.9616 </r>
       <r>    32.5291     0.1371    47.9649 </r>
       <r>    32.5533     0.1316    47.9681 </r>
       <r>    32.5775     0.1281    47.9712 </r>
       <r>    32.6017     0.1209    47.9741 </r>
       <r>    32.6259     0.1094    47.9768 </r>
       <r>    32.6501     0.0984    47.9791 </r>
       <r>    32.6743     0.0855    47.9812 </r>
       <r>    32.6985     0.0681    47.9829 </r>
       <r>    32.7227     0.0550    47.9842 </r>
       <r>    32.7469     0.0535    47.9855 </r>
       <r>    32.7710     0.0583    47.9869 </r>
       <r>    32.7952     0.0577    47.9883 </r>
       <r>    32.8194     0.0457    47.9894 </r>
       <r>    32.8436     0.0286    47.9901 </r>
       <r>    32.8678     0.0165    47.9905 </r>
       <r>    32.8920     0.0127    47.9908 </r>
       <r>    32.9162     0.0151    47.9912 </r>
       <r>    32.9404     0.0180    47.9916 </r>
       <r>    32.9646     0.0161    47.9920 </r>
       <r>    32.9888     0.0104    47.9922 </r>
       <r>    33.0130     0.0072    47.9924 </r>
       <r>    33.0372     0.0092    47.9926 </r>
       <r>    33.0614     0.0136    47.9930 </r>
       <r>    33.0855     0.0168    47.9934 </r>
       <r>    33.1097     0.0183    47.9938 </r>
       <r>    33.1339     0.0191    47.9943 </r>
       <r>    33.1581     0.0192    47.9947 </r>
       <r>    33.1823     0.0173    47.9951 </r>
       <r>    33.2065     0.0142    47.9955 </r>
       <r>    33.2307     0.0130    47.9958 </r>
       <r>    33.2549     0.0153    47.9962 </r>
       <r>    33.2791     0.0192    47.9966 </r>
       <r>    33.3033     0.0213    47.9972 </r>
       <r>    33.3275     0.0183    47.9976 </r>
       <r>    33.3517     0.0116    47.9979 </r>
       <r>    33.3759     0.0073    47.9981 </r>
       <r>    33.4000     0.0078    47.9982 </r>
       <r>    33.4242     0.0091    47.9985 </r>
       <r>    33.4484     0.0075    47.9986 </r>
       <r>    33.4726     0.0041    47.9987 </r>
       <r>    33.4968     0.0017    47.9988 </r>
       <r>    33.5210     0.0012    47.9988 </r>
       <r>    33.5452     0.0018    47.9989 </r>
       <r>    33.5694     0.0022    47.9989 </r>
       <r>    33.5936     0.0018    47.9990 </r>
       <r>    33.6178     0.0009    47.9990 </r>
       <r>    33.6420     0.0003    47.9990 </r>
       <r>    33.6662     0.0001    47.9990 </r>
       <r>    33.6904     0.0000    47.9990 </r>
       <r>    33.7145     0.0000    47.9990 </r>
       <r>    33.7387     0.0001    47.9990 </r>
       <r>    33.7629     0.0008    47.9990 </r>
       <r>    33.7871     0.0029    47.9991 </r>
       <r>    33.8113     0.0069    47.9992 </r>
       <r>    33.8355     0.0107    47.9995 </r>
       <r>    33.8597     0.0105    47.9998 </r>
       <r>    33.8839     0.0066    47.9999 </r>
       <r>    33.9081     0.0026    48.0000 </r>
       <r>    33.9323     0.0007    48.0000 </r>
       <r>    33.9565     0.0001    48.0000 </r>
       <r>    33.9807     0.0000    48.0000 </r>
       <r>    34.0049     0.0000    48.0000 </r>
       <r>    34.0290     0.0000    48.0000 </r>
       <r>    34.0532     0.0000    48.0000 </r>
       <r>    34.0774     0.0000    48.0000 </r>
       <r>    34.1016     0.0000    48.0000 </r>
       <r>    34.1258     0.0000    48.0000 </r>
       <r>    34.1500     0.0000    48.0000 </r>
       <r>    34.1742     0.0000    48.0000 </r>
       <r>    34.1984     0.0000    48.0000 </r>
       <r>    34.2226     0.0000    48.0000 </r>
       <r>    34.2468     0.0000    48.0000 </r>
       <r>    34.2710     0.0000    48.0000 </r>
       <r>    34.2952     0.0000    48.0000 </r>
       <r>    34.3193     0.0000    48.0000 </r>
       <r>    34.3435     0.0000    48.0000 </r>
       <r>    34.3677     0.0000    48.0000 </r>
       <r>    34.3919     0.0000    48.0000 </r>
       <r>    34.4161     0.0000    48.0000 </r>
       <r>    34.4403     0.0000    48.0000 </r>
       <r>    34.4645     0.0000    48.0000 </r>
       <r>    34.4887     0.0000    48.0000 </r>
       <r>    34.5129     0.0000    48.0000 </r>
       <r>    34.5371     0.0000    48.0000 </r>
       <r>    34.5613     0.0000    48.0000 </r>
       <r>    34.5855     0.0000    48.0000 </r>
       <r>    34.6097     0.0000    48.0000 </r>
       <r>    34.6338     0.0000    48.0000 </r>
       <r>    34.6580     0.0000    48.0000 </r>
       <r>    34.6822     0.0000    48.0000 </r>
       <r>    34.7064     0.0000    48.0000 </r>
       <r>    34.7306     0.0000    48.0000 </r>
       <r>    34.7548     0.0000    48.0000 </r>
       <r>    34.7790     0.0000    48.0000 </r>
       <r>    34.8032     0.0000    48.0000 </r>
       <r>    34.8274     0.0000    48.0000 </r>
       <r>    34.8516     0.0000    48.0000 </r>
       <r>    34.8758     0.0000    48.0000 </r>
       <r>    34.9000     0.0000    48.0000 </r>
       <r>    34.9242     0.0000    48.0000 </r>
       <r>    34.9483     0.0000    48.0000 </r>
       <r>    34.9725     0.0000    48.0000 </r>
       <r>    34.9967     0.0000    48.0000 </r>
       <r>    35.0209     0.0000    48.0000 </r>
       <r>    35.0451     0.0000    48.0000 </r>
       <r>    35.0693     0.0000    48.0000 </r>
       <r>    35.0935     0.0000    48.0000 </r>
       <r>    35.1177     0.0000    48.0000 </r>
       <r>    35.1419     0.0000    48.0000 </r>
       <r>    35.1661     0.0000    48.0000 </r>
       <r>    35.1903     0.0000    48.0000 </r>
       <r>    35.2145     0.0000    48.0000 </r>
       <r>    35.2387     0.0000    48.0000 </r>
       <r>    35.2628     0.0000    48.0000 </r>
       <r>    35.2870     0.0000    48.0000 </r>
       <r>    35.3112     0.0000    48.0000 </r>
       <r>    35.3354     0.0000    48.0000 </r>
       <r>    35.3596     0.0000    48.0000 </r>
       <r>    35.3838     0.0000    48.0000 </r>
       <r>    35.4080     0.0000    48.0000 </r>
       <r>    35.4322     0.0000    48.0000 </r>
       <r>    35.4564     0.0000    48.0000 </r>
       <r>    35.4806     0.0000    48.0000 </r>
       <r>    35.5048     0.0000    48.0000 </r>
       <r>    35.5290     0.0000    48.0000 </r>
       <r>    35.5532     0.0000    48.0000 </r>
       <r>    35.5773     0.0000    48.0000 </r>
       <r>    35.6015     0.0000    48.0000 </r>
       <r>    35.6257     0.0000    48.0000 </r>
       <r>    35.6499     0.0000    48.0000 </r>
       <r>    35.6741     0.0000    48.0000 </r>
       <r>    35.6983     0.0000    48.0000 </r>
       <r>    35.7225     0.0000    48.0000 </r>
       <r>    35.7467     0.0000    48.0000 </r>
       <r>    35.7709     0.0000    48.0000 </r>
       <r>    35.7951     0.0000    48.0000 </r>
       <r>    35.8193     0.0000    48.0000 </r>
       <r>    35.8435     0.0000    48.0000 </r>
       <r>    35.8677     0.0000    48.0000 </r>
       <r>    35.8918     0.0000    48.0000 </r>
       <r>    35.9160     0.0000    48.0000 </r>
       <r>    35.9402     0.0000    48.0000 </r>
       <r>    35.9644     0.0000    48.0000 </r>
       <r>    35.9886     0.0000    48.0000 </r>
       <r>    36.0128     0.0000    48.0000 </r>
       <r>    36.0370     0.0000    48.0000 </r>
      </set>
     </set>
    </array>
   </total>
  </dos>
 </calculation>
 <structure name="finalpos" >
  <crystal>
   <varray name="basis" >
    <v>       0.00000000       2.84191452       2.84191452 </v>
    <v>       2.84191452       0.00000000       2.84191452 </v>
    <v>       2.84191452       2.84191452       0.00000000 </v>
   </varray>
   <i name="volume">     45.90532112 </i>
   <varray name="rec_basis" >
    <v>      -0.17593773       0.17593773       0.17593773 </v>
    <v>       0.17593773      -0.17593773       0.17593773 </v>
    <v>       0.17593773       0.17593773      -0.17593773 </v>
   </varray>
  </crystal>
  <varray name="positions" >
   <v>       0.25000000       0.25000000       0.25000000 </v>
   <v>       0.00000000       0.00000000       0.00000000 </v>
  </varray>
 </structure>
</modeling>
